HEADER
"PSFversion" "1.00"
"simulator" "spectre"
"version" "24.1.0.078"
"date" "11:57:55 PM, Sun Jun 21, 2026"
"design" "// Switched-capacitor LPF (2-phase, PMOS switches) — PSS/PAC/PNoise verification of"
"analysis type" "td.pss"
"analysis name" "pss"
"analysis description" "Periodic Steady-State Analysis `pss': time = (0 s -> 1 ms)"
"xVecSorted" "ascending"
"tolerance.relative" 1.000000000000000e-05
"fundamental" 1.000000000000000e+03
"start" 5.050000000000000e-02
"outputstart" 0.000000000000000e+00
"stop" 5.150000000000000e-02
"period" 1.000000000000000e-03
"steadyratio" 1.000000000000000e-02
"harms" 20
"step" 5.150000000000000e-05
"istep" 1.000000000000000e-03
"maxstep" 5.000000000000005e-06
"ic" "all"
"useprevic" "no"
"skipdc" "no"
"reltol" 1.000000000000000e-05
"abstol(V)" 1.000000000000000e-08
"abstol(I)" 1.000000000000000e-13
"temp" 2.700000000000000e+01
"tnom" 2.700000000000000e+01
"tempeffects" "all"
"errpreset" "conservative"
"method" "gear2only"
"lteratio" 3.500000000000000e+00
"relref" "alllocal"
"cmin" 0.000000000000000e+00
"gmin" 1.000000000000000e-12
TYPE
"sweep" FLOAT DOUBLE PROP(
"key" "sweep"
)
"Real" FLOAT DOUBLE PROP(
"units" ""
"key" "node"
"tolerance" 1.000000000000000e-06
)
"Tau" FLOAT DOUBLE PROP(
"units" "N*m"
"key" "node"
"tolerance" 1.000000000000000e-06
)
"Alpha" FLOAT DOUBLE PROP(
"units" "rads/s^2"
"key" "node"
"tolerance" 1.000000000000000e-06
)
"Omega" FLOAT DOUBLE PROP(
"units" "rads/s"
"key" "node"
"tolerance" 1.000000000000000e-06
)
"Theta" FLOAT DOUBLE PROP(
"units" "rads"
"key" "node"
"tolerance" 1.000000000000000e-06
)
"F" FLOAT DOUBLE PROP(
"units" "N"
"key" "node"
"tolerance" 1.000000000000000e-06
)
"Imp" FLOAT DOUBLE PROP(
"units" "m/s^3"
"key" "node"
"tolerance" 1.000000000000000e-06
)
"Acc" FLOAT DOUBLE PROP(
"units" "m/s^2"
"key" "node"
"tolerance" 1.000000000000000e-06
)
"Vel" FLOAT DOUBLE PROP(
"units" "m/s"
"key" "node"
"tolerance" 1.000000000000000e-06
)
"Pos" FLOAT DOUBLE PROP(
"units" "m"
"key" "node"
"tolerance" 1.000000000000000e-06
)
"Phi" FLOAT DOUBLE PROP(
"units" "Wb"
"key" "node"
"tolerance" 1.000000000000000e-09
)
"V" FLOAT DOUBLE PROP(
"units" "V"
"key" "node"
"tolerance" 1.000000000000000e-08
)
"I" FLOAT DOUBLE PROP(
"units" "A"
"key" "branch"
"tolerance" 1.000000000000000e-13
)
"MMF" FLOAT DOUBLE PROP(
"units" "A*turn"
"key" "node"
"tolerance" 1.000000000000000e-12
)
"Wb" FLOAT DOUBLE PROP(
"units" "Wb"
"key" "node"
"tolerance" 1.000000000000000e-09
)
"Temp" FLOAT DOUBLE PROP(
"units" "C"
"key" "node"
"tolerance" 1.000000000000000e-04
)
"Pwr" FLOAT DOUBLE PROP(
"units" "W"
"key" "node"
"tolerance" 1.000000000000000e-09
)
"U" FLOAT DOUBLE PROP(
"units" ""
"key" "node"
"tolerance" 1.000000000000000e-06
)
"V/Sec" FLOAT DOUBLE PROP(
"units" "V/s"
"key" "node"
"tolerance" 9.999999999999999e-05
)
"I/Sec" FLOAT DOUBLE PROP(
"units" "A/s"
"key" "node"
"tolerance" 1.000000000000000e-06
)
"1/Sec" FLOAT DOUBLE PROP(
"units" "1/s"
"key" "node"
"tolerance" 9.999999999999999e-05
)
"HOD" FLOAT DOUBLE PROP(
"units" ""
"key" "node"
"tolerance" 1.000000000000000e-02
)
"Q" FLOAT DOUBLE PROP(
"units" "coul"
"key" "node"
"tolerance" 1.000000000000000e-14
)
"Efield" FLOAT DOUBLE PROP(
"units" "V/m"
"key" "node"
"tolerance" 1.000000000000000e-06
"sigtype" "optical"
)
SWEEP
"time" "sweep" PROP(
"sweep_direction" 0
"units" "s"
"plot" 0
"grid" 1
)
TRACE
"VIN" "V"
"VOUT" "V"
"VMID" "V"
"CLK1" "V"
"CLK2" "V"
"0" "U"
VALUE
"time" 0.000000000000000e+00
"VIN" 2.000000000000000e+01
"VOUT" 2.003215816622399e+01
"VMID" 1.986956577392045e+01
"CLK1" 0.000000000000000e+00
"CLK2" 0.000000000000000e+00
"0" 0.000000000000000e+00
"time" 6.620532892048780e-08
"VIN" 2.000000000000000e+01
"VOUT" 2.003457923099941e+01
"VMID" 1.988708630569731e+01
"CLK1" 0.000000000000000e+00
"CLK2" 1.324106578409756e+00
"0" 0.000000000000000e+00
"time" 1.321192674777483e-07
"VIN" 2.000000000000000e+01
"VOUT" 2.003709564290486e+01
"VMID" 1.990520543617291e+01
"CLK1" 0.000000000000000e+00
"CLK2" 2.642385349554965e+00
"0" 0.000000000000000e+00
"time" 2.026042632621849e-07
"VIN" 2.000000000000000e+01
"VOUT" 2.003978252335812e+01
"VMID" 1.992449134942940e+01
"CLK1" 0.000000000000000e+00
"CLK2" 4.052085265243699e+00
"0" 0.000000000000000e+00
"time" 2.686510299637623e-07
"VIN" 2.000000000000000e+01
"VOUT" 2.004228610414647e+01
"VMID" 1.994238445550610e+01
"CLK1" 0.000000000000000e+00
"CLK2" 5.373020599275247e+00
"0" 0.000000000000000e+00
"time" 3.995603566481210e-07
"VIN" 2.000000000000000e+01
"VOUT" 2.004717982208670e+01
"VMID" 1.997708531606964e+01
"CLK1" 0.000000000000000e+00
"CLK2" 7.991207132962419e+00
"0" 0.000000000000000e+00
"time" 5.624409259025187e-07
"VIN" 2.000000000000000e+01
"VOUT" 2.005302248507781e+01
"VMID" 2.001793627803109e+01
"CLK1" 0.000000000000000e+00
"CLK2" 1.124881851805037e+01
"0" 0.000000000000000e+00
"time" 6.987491613166807e-07
"VIN" 2.000000000000000e+01
"VOUT" 2.005739845821166e+01
"VMID" 2.004837445995220e+01
"CLK1" 0.000000000000000e+00
"CLK2" 1.397498322633361e+01
"0" 0.000000000000000e+00
"time" 8.016070296157363e-07
"VIN" 2.000000000000000e+01
"VOUT" 2.005991535672412e+01
"VMID" 2.006679884518691e+01
"CLK1" 0.000000000000000e+00
"CLK2" 1.603214059231473e+01
"0" 0.000000000000000e+00
"time" 8.781677585806280e-07
"VIN" 2.000000000000000e+01
"VOUT" 2.006122174651414e+01
"VMID" 2.007732284351155e+01
"CLK1" 0.000000000000000e+00
"CLK2" 1.756335517161256e+01
"0" 0.000000000000000e+00
"time" 9.662871083213065e-07
"VIN" 2.000000000000000e+01
"VOUT" 2.006229717856787e+01
"VMID" 2.008681695079338e+01
"CLK1" 0.000000000000000e+00
"CLK2" 1.932574216642613e+01
"0" 0.000000000000000e+00
"time" 1.053647948216774e-06
"VIN" 2.000000000000000e+01
"VOUT" 2.006309007017163e+01
"VMID" 2.009435682705385e+01
"CLK1" 0.000000000000000e+00
"CLK2" 2.107295896433548e+01
"0" 0.000000000000000e+00
"time" 1.134019612457349e-06
"VIN" 2.000000000000000e+01
"VOUT" 2.006367515631504e+01
"VMID" 2.010018180301696e+01
"CLK1" 0.000000000000000e+00
"CLK2" 2.268039224914698e+01
"0" 0.000000000000000e+00
"time" 1.224700067525841e-06
"VIN" 2.000000000000000e+01
"VOUT" 2.006423753336850e+01
"VMID" 2.010590770040234e+01
"CLK1" 0.000000000000000e+00
"CLK2" 2.449400135051683e+01
"0" 0.000000000000000e+00
"time" 1.330525106174596e-06
"VIN" 2.000000000000000e+01
"VOUT" 2.006481320894440e+01
"VMID" 2.011182382246817e+01
"CLK1" 0.000000000000000e+00
"CLK2" 2.661050212349192e+01
"0" 0.000000000000000e+00
"time" 1.457195805638911e-06
"VIN" 2.000000000000000e+01
"VOUT" 2.006542968724792e+01
"VMID" 2.011816641062926e+01
"CLK1" 0.000000000000000e+00
"CLK2" 2.914391611277822e+01
"0" 0.000000000000000e+00
"time" 1.610748214607438e-06
"VIN" 2.000000000000000e+01
"VOUT" 2.006610809615806e+01
"VMID" 2.012511834286353e+01
"CLK1" 0.000000000000000e+00
"CLK2" 3.221496429214876e+01
"0" 0.000000000000000e+00
"time" 1.796549783474044e-06
"VIN" 2.000000000000000e+01
"VOUT" 2.006686190028118e+01
"VMID" 2.013278813575757e+01
"CLK1" 0.000000000000000e+00
"CLK2" 3.593099566948088e+01
"0" 0.000000000000000e+00
"time" 2.000000000002000e-06
"VIN" 2.000000000000000e+01
"VOUT" 2.006763029719304e+01
"VMID" 2.014053899889089e+01
"CLK1" 0.000000000000000e+00
"CLK2" 4.000000000000000e+01
"0" 0.000000000000000e+00
"time" 2.066806897738083e-06
"VIN" 2.000000000000000e+01
"VOUT" 2.006763164402059e+01
"VMID" 2.014047515279504e+01
"CLK1" 0.000000000000000e+00
"CLK2" 4.000000000000000e+01
"0" 0.000000000000000e+00
"time" 2.125283643211739e-06
"VIN" 2.000000000000000e+01
"VOUT" 2.006763165506511e+01
"VMID" 2.014040824900744e+01
"CLK1" 0.000000000000000e+00
"CLK2" 4.000000000000000e+01
"0" 0.000000000000000e+00
"time" 2.141228818447471e-06
"VIN" 2.000000000000000e+01
"VOUT" 2.006763165179798e+01
"VMID" 2.014038999169194e+01
"CLK1" 0.000000000000000e+00
"CLK2" 4.000000000000000e+01
"0" 0.000000000000000e+00
"time" 2.173119168918936e-06
"VIN" 2.000000000000000e+01
"VOUT" 2.006763165170460e+01
"VMID" 2.014035351927855e+01
"CLK1" 0.000000000000000e+00
"CLK2" 4.000000000000000e+01
"0" 0.000000000000000e+00
"time" 2.236899869861864e-06
"VIN" 2.000000000000000e+01
"VOUT" 2.006763165187879e+01
"VMID" 2.014028059032114e+01
"CLK1" 0.000000000000000e+00
"CLK2" 4.000000000000000e+01
"0" 0.000000000000000e+00
"time" 2.364461271747720e-06
"VIN" 2.000000000000000e+01
"VOUT" 2.006763165213562e+01
"VMID" 2.014013484661112e+01
"CLK1" 0.000000000000000e+00
"CLK2" 4.000000000000000e+01
"0" 0.000000000000000e+00
"time" 2.619584075519432e-06
"VIN" 2.000000000000000e+01
"VOUT" 2.006763165264540e+01
"VMID" 2.013984381693872e+01
"CLK1" 0.000000000000000e+00
"CLK2" 4.000000000000000e+01
"0" 0.000000000000000e+00
"time" 3.129829683062857e-06
"VIN" 2.000000000000000e+01
"VOUT" 2.006763165366528e+01
"VMID" 2.013926357932612e+01
"CLK1" 0.000000000000000e+00
"CLK2" 4.000000000000000e+01
"0" 0.000000000000000e+00
"time" 4.150320898149706e-06
"VIN" 2.000000000000000e+01
"VOUT" 2.006763165570503e+01
"VMID" 2.013811035039330e+01
"CLK1" 0.000000000000000e+00
"CLK2" 4.000000000000000e+01
"0" 0.000000000000000e+00
"time" 6.191303328323405e-06
"VIN" 2.000000000000000e+01
"VOUT" 2.006763165978442e+01
"VMID" 2.013583255418391e+01
"CLK1" 0.000000000000000e+00
"CLK2" 4.000000000000000e+01
"0" 0.000000000000000e+00
"time" 8.691303328325906e-06
"VIN" 2.000000000000000e+01
"VOUT" 2.006763166478105e+01
"VMID" 2.013309376481082e+01
"CLK1" 0.000000000000000e+00
"CLK2" 4.000000000000000e+01
"0" 0.000000000000000e+00
"time" 1.119130332832841e-05
"VIN" 2.000000000000000e+01
"VOUT" 2.006763166977744e+01
"VMID" 2.013041044020350e+01
"CLK1" 0.000000000000000e+00
"CLK2" 4.000000000000000e+01
"0" 0.000000000000000e+00
"time" 1.369130332833091e-05
"VIN" 2.000000000000000e+01
"VOUT" 2.006763167477359e+01
"VMID" 2.012778149503671e+01
"CLK1" 0.000000000000000e+00
"CLK2" 4.000000000000000e+01
"0" 0.000000000000000e+00
"time" 1.619130332833341e-05
"VIN" 2.000000000000000e+01
"VOUT" 2.006763167976950e+01
"VMID" 2.012520583205997e+01
"CLK1" 0.000000000000000e+00
"CLK2" 4.000000000000000e+01
"0" 0.000000000000000e+00
"time" 1.869130332833591e-05
"VIN" 2.000000000000000e+01
"VOUT" 2.006763168476518e+01
"VMID" 2.012268236535952e+01
"CLK1" 0.000000000000000e+00
"CLK2" 4.000000000000000e+01
"0" 0.000000000000000e+00
"time" 2.119130332833841e-05
"VIN" 2.000000000000000e+01
"VOUT" 2.006763168976064e+01
"VMID" 2.012021002783255e+01
"CLK1" 0.000000000000000e+00
"CLK2" 4.000000000000000e+01
"0" 0.000000000000000e+00
"time" 2.369130332834091e-05
"VIN" 2.000000000000000e+01
"VOUT" 2.006763169475588e+01
"VMID" 2.011778777336997e+01
"CLK1" 0.000000000000000e+00
"CLK2" 4.000000000000000e+01
"0" 0.000000000000000e+00
"time" 2.619130332834341e-05
"VIN" 2.000000000000000e+01
"VOUT" 2.006763169975090e+01
"VMID" 2.011541457727073e+01
"CLK1" 0.000000000000000e+00
"CLK2" 4.000000000000000e+01
"0" 0.000000000000000e+00
"time" 2.869130332834591e-05
"VIN" 2.000000000000000e+01
"VOUT" 2.006763170474571e+01
"VMID" 2.011308943606991e+01
"CLK1" 0.000000000000000e+00
"CLK2" 4.000000000000000e+01
"0" 0.000000000000000e+00
"time" 3.119130332834841e-05
"VIN" 2.000000000000000e+01
"VOUT" 2.006763170974032e+01
"VMID" 2.011081136717714e+01
"CLK1" 0.000000000000000e+00
"CLK2" 4.000000000000000e+01
"0" 0.000000000000000e+00
"time" 3.369130332835091e-05
"VIN" 2.000000000000000e+01
"VOUT" 2.006763171473472e+01
"VMID" 2.010857940845847e+01
"CLK1" 0.000000000000000e+00
"CLK2" 4.000000000000000e+01
"0" 0.000000000000000e+00
"time" 3.619130332835341e-05
"VIN" 2.000000000000000e+01
"VOUT" 2.006763171972892e+01
"VMID" 2.010639261780601e+01
"CLK1" 0.000000000000000e+00
"CLK2" 4.000000000000000e+01
"0" 0.000000000000000e+00
"time" 3.869130332835591e-05
"VIN" 2.000000000000000e+01
"VOUT" 2.006763172472293e+01
"VMID" 2.010425007271010e+01
"CLK1" 0.000000000000000e+00
"CLK2" 4.000000000000000e+01
"0" 0.000000000000000e+00
"time" 4.119130332835841e-05
"VIN" 2.000000000000000e+01
"VOUT" 2.006763172971675e+01
"VMID" 2.010215086983884e+01
"CLK1" 0.000000000000000e+00
"CLK2" 4.000000000000000e+01
"0" 0.000000000000000e+00
"time" 4.369130332836091e-05
"VIN" 2.000000000000000e+01
"VOUT" 2.006763173471038e+01
"VMID" 2.010009412462639e+01
"CLK1" 0.000000000000000e+00
"CLK2" 4.000000000000000e+01
"0" 0.000000000000000e+00
"time" 4.619130332836341e-05
"VIN" 2.000000000000000e+01
"VOUT" 2.006763173970383e+01
"VMID" 2.009807897087036e+01
"CLK1" 0.000000000000000e+00
"CLK2" 4.000000000000000e+01
"0" 0.000000000000000e+00
"time" 4.869130332836591e-05
"VIN" 2.000000000000000e+01
"VOUT" 2.006763174469710e+01
"VMID" 2.009610456033827e+01
"CLK1" 0.000000000000000e+00
"CLK2" 4.000000000000000e+01
"0" 0.000000000000000e+00
"time" 5.119130332836841e-05
"VIN" 2.000000000000000e+01
"VOUT" 2.006763174969020e+01
"VMID" 2.009417006238289e+01
"CLK1" 0.000000000000000e+00
"CLK2" 4.000000000000000e+01
"0" 0.000000000000000e+00
"time" 5.369130332837091e-05
"VIN" 2.000000000000000e+01
"VOUT" 2.006763175468313e+01
"VMID" 2.009227466356628e+01
"CLK1" 0.000000000000000e+00
"CLK2" 4.000000000000000e+01
"0" 0.000000000000000e+00
"time" 5.619130332837341e-05
"VIN" 2.000000000000000e+01
"VOUT" 2.006763175967589e+01
"VMID" 2.009041756729233e+01
"CLK1" 0.000000000000000e+00
"CLK2" 4.000000000000000e+01
"0" 0.000000000000000e+00
"time" 5.869130332837591e-05
"VIN" 2.000000000000000e+01
"VOUT" 2.006763176466849e+01
"VMID" 2.008859799344757e+01
"CLK1" 0.000000000000000e+00
"CLK2" 4.000000000000000e+01
"0" 0.000000000000000e+00
"time" 6.119130332837841e-05
"VIN" 2.000000000000000e+01
"VOUT" 2.006763176966092e+01
"VMID" 2.008681517805003e+01
"CLK1" 0.000000000000000e+00
"CLK2" 4.000000000000000e+01
"0" 0.000000000000000e+00
"time" 6.369130332838091e-05
"VIN" 2.000000000000000e+01
"VOUT" 2.006763177465320e+01
"VMID" 2.008506837290599e+01
"CLK1" 0.000000000000000e+00
"CLK2" 4.000000000000000e+01
"0" 0.000000000000000e+00
"time" 6.619130332838341e-05
"VIN" 2.000000000000000e+01
"VOUT" 2.006763177964533e+01
"VMID" 2.008335684527444e+01
"CLK1" 0.000000000000000e+00
"CLK2" 4.000000000000000e+01
"0" 0.000000000000000e+00
"time" 6.869130332838591e-05
"VIN" 2.000000000000000e+01
"VOUT" 2.006763178463731e+01
"VMID" 2.008167987753903e+01
"CLK1" 0.000000000000000e+00
"CLK2" 4.000000000000000e+01
"0" 0.000000000000000e+00
"time" 7.119130332838841e-05
"VIN" 2.000000000000000e+01
"VOUT" 2.006763178962914e+01
"VMID" 2.008003676688735e+01
"CLK1" 0.000000000000000e+00
"CLK2" 4.000000000000000e+01
"0" 0.000000000000000e+00
"time" 7.369130332839091e-05
"VIN" 2.000000000000000e+01
"VOUT" 2.006763179462082e+01
"VMID" 2.007842682499726e+01
"CLK1" 0.000000000000000e+00
"CLK2" 4.000000000000000e+01
"0" 0.000000000000000e+00
"time" 7.619130332839341e-05
"VIN" 2.000000000000000e+01
"VOUT" 2.006763179961236e+01
"VMID" 2.007684937773033e+01
"CLK1" 0.000000000000000e+00
"CLK2" 4.000000000000000e+01
"0" 0.000000000000000e+00
"time" 7.869130332839591e-05
"VIN" 2.000000000000000e+01
"VOUT" 2.006763180460377e+01
"VMID" 2.007530376483197e+01
"CLK1" 0.000000000000000e+00
"CLK2" 4.000000000000000e+01
"0" 0.000000000000000e+00
"time" 8.119130332839841e-05
"VIN" 2.000000000000000e+01
"VOUT" 2.006763180959504e+01
"VMID" 2.007378933963827e+01
"CLK1" 0.000000000000000e+00
"CLK2" 4.000000000000000e+01
"0" 0.000000000000000e+00
"time" 8.369130332840091e-05
"VIN" 2.000000000000000e+01
"VOUT" 2.006763181458617e+01
"VMID" 2.007230546878925e+01
"CLK1" 0.000000000000000e+00
"CLK2" 4.000000000000000e+01
"0" 0.000000000000000e+00
"time" 8.619130332840341e-05
"VIN" 2.000000000000000e+01
"VOUT" 2.006763181957718e+01
"VMID" 2.007085153194847e+01
"CLK1" 0.000000000000000e+00
"CLK2" 4.000000000000000e+01
"0" 0.000000000000000e+00
"time" 8.869130332840591e-05
"VIN" 2.000000000000000e+01
"VOUT" 2.006763182456806e+01
"VMID" 2.006942692152887e+01
"CLK1" 0.000000000000000e+00
"CLK2" 4.000000000000000e+01
"0" 0.000000000000000e+00
"time" 9.119130332840841e-05
"VIN" 2.000000000000000e+01
"VOUT" 2.006763182955881e+01
"VMID" 2.006803104242449e+01
"CLK1" 0.000000000000000e+00
"CLK2" 4.000000000000000e+01
"0" 0.000000000000000e+00
"time" 9.369130332841091e-05
"VIN" 2.000000000000000e+01
"VOUT" 2.006763183454944e+01
"VMID" 2.006666331174826e+01
"CLK1" 0.000000000000000e+00
"CLK2" 4.000000000000000e+01
"0" 0.000000000000000e+00
"time" 9.619130332841341e-05
"VIN" 2.000000000000000e+01
"VOUT" 2.006763183953995e+01
"VMID" 2.006532315857537e+01
"CLK1" 0.000000000000000e+00
"CLK2" 4.000000000000000e+01
"0" 0.000000000000000e+00
"time" 9.869130332841591e-05
"VIN" 2.000000000000000e+01
"VOUT" 2.006763184453034e+01
"VMID" 2.006401002369238e+01
"CLK1" 0.000000000000000e+00
"CLK2" 4.000000000000000e+01
"0" 0.000000000000000e+00
"time" 1.011913033284184e-04
"VIN" 2.000000000000000e+01
"VOUT" 2.006763184952062e+01
"VMID" 2.006272335935172e+01
"CLK1" 0.000000000000000e+00
"CLK2" 4.000000000000000e+01
"0" 0.000000000000000e+00
"time" 1.036913033284209e-04
"VIN" 2.000000000000000e+01
"VOUT" 2.006763185451080e+01
"VMID" 2.006146262903160e+01
"CLK1" 0.000000000000000e+00
"CLK2" 4.000000000000000e+01
"0" 0.000000000000000e+00
"time" 1.061913033284234e-04
"VIN" 2.000000000000000e+01
"VOUT" 2.006763185950086e+01
"VMID" 2.006022730720110e+01
"CLK1" 0.000000000000000e+00
"CLK2" 4.000000000000000e+01
"0" 0.000000000000000e+00
"time" 1.086913033284259e-04
"VIN" 2.000000000000000e+01
"VOUT" 2.006763186449081e+01
"VMID" 2.005901687909041e+01
"CLK1" 0.000000000000000e+00
"CLK2" 4.000000000000000e+01
"0" 0.000000000000000e+00
"time" 1.111913033284284e-04
"VIN" 2.000000000000000e+01
"VOUT" 2.006763186948066e+01
"VMID" 2.005783084046605e+01
"CLK1" 0.000000000000000e+00
"CLK2" 4.000000000000000e+01
"0" 0.000000000000000e+00
"time" 1.136913033284309e-04
"VIN" 2.000000000000000e+01
"VOUT" 2.006763187447040e+01
"VMID" 2.005666869741091e+01
"CLK1" 0.000000000000000e+00
"CLK2" 4.000000000000000e+01
"0" 0.000000000000000e+00
"time" 1.161913033284334e-04
"VIN" 2.000000000000000e+01
"VOUT" 2.006763187946003e+01
"VMID" 2.005552996610912e+01
"CLK1" 0.000000000000000e+00
"CLK2" 4.000000000000000e+01
"0" 0.000000000000000e+00
"time" 1.186913033284359e-04
"VIN" 2.000000000000000e+01
"VOUT" 2.006763188444958e+01
"VMID" 2.005441417263554e+01
"CLK1" 0.000000000000000e+00
"CLK2" 4.000000000000000e+01
"0" 0.000000000000000e+00
"time" 1.211913033284384e-04
"VIN" 2.000000000000000e+01
"VOUT" 2.006763188943902e+01
"VMID" 2.005332085274975e+01
"CLK1" 0.000000000000000e+00
"CLK2" 4.000000000000000e+01
"0" 0.000000000000000e+00
"time" 1.236913033284409e-04
"VIN" 2.000000000000000e+01
"VOUT" 2.006763189442838e+01
"VMID" 2.005224955169457e+01
"CLK1" 0.000000000000000e+00
"CLK2" 4.000000000000000e+01
"0" 0.000000000000000e+00
"time" 1.261913033284434e-04
"VIN" 2.000000000000000e+01
"VOUT" 2.006763189941764e+01
"VMID" 2.005119982399884e+01
"CLK1" 0.000000000000000e+00
"CLK2" 4.000000000000000e+01
"0" 0.000000000000000e+00
"time" 1.286913033284459e-04
"VIN" 2.000000000000000e+01
"VOUT" 2.006763190440681e+01
"VMID" 2.005017123328447e+01
"CLK1" 0.000000000000000e+00
"CLK2" 4.000000000000000e+01
"0" 0.000000000000000e+00
"time" 1.311913033284484e-04
"VIN" 2.000000000000000e+01
"VOUT" 2.006763190939589e+01
"VMID" 2.004916335207763e+01
"CLK1" 0.000000000000000e+00
"CLK2" 4.000000000000000e+01
"0" 0.000000000000000e+00
"time" 1.336913033284509e-04
"VIN" 2.000000000000000e+01
"VOUT" 2.006763191438488e+01
"VMID" 2.004817576162396e+01
"CLK1" 0.000000000000000e+00
"CLK2" 4.000000000000000e+01
"0" 0.000000000000000e+00
"time" 1.361913033284534e-04
"VIN" 2.000000000000000e+01
"VOUT" 2.006763191937378e+01
"VMID" 2.004720805170779e+01
"CLK1" 0.000000000000000e+00
"CLK2" 4.000000000000000e+01
"0" 0.000000000000000e+00
"time" 1.386913033284559e-04
"VIN" 2.000000000000000e+01
"VOUT" 2.006763192436260e+01
"VMID" 2.004625982047521e+01
"CLK1" 0.000000000000000e+00
"CLK2" 4.000000000000000e+01
"0" 0.000000000000000e+00
"time" 1.411913033284584e-04
"VIN" 2.000000000000000e+01
"VOUT" 2.006763192935134e+01
"VMID" 2.004533067426083e+01
"CLK1" 0.000000000000000e+00
"CLK2" 4.000000000000000e+01
"0" 0.000000000000000e+00
"time" 1.436913033284609e-04
"VIN" 2.000000000000000e+01
"VOUT" 2.006763193433999e+01
"VMID" 2.004442022741841e+01
"CLK1" 0.000000000000000e+00
"CLK2" 4.000000000000000e+01
"0" 0.000000000000000e+00
"time" 1.461913033284634e-04
"VIN" 2.000000000000000e+01
"VOUT" 2.006763193932857e+01
"VMID" 2.004352810215492e+01
"CLK1" 0.000000000000000e+00
"CLK2" 4.000000000000000e+01
"0" 0.000000000000000e+00
"time" 1.486913033284659e-04
"VIN" 2.000000000000000e+01
"VOUT" 2.006763194431707e+01
"VMID" 2.004265392836823e+01
"CLK1" 0.000000000000000e+00
"CLK2" 4.000000000000000e+01
"0" 0.000000000000000e+00
"time" 1.511913033284684e-04
"VIN" 2.000000000000000e+01
"VOUT" 2.006763194930550e+01
"VMID" 2.004179734348827e+01
"CLK1" 0.000000000000000e+00
"CLK2" 4.000000000000000e+01
"0" 0.000000000000000e+00
"time" 1.536913033284709e-04
"VIN" 2.000000000000000e+01
"VOUT" 2.006763195429386e+01
"VMID" 2.004095799232148e+01
"CLK1" 0.000000000000000e+00
"CLK2" 4.000000000000000e+01
"0" 0.000000000000000e+00
"time" 1.561913033284734e-04
"VIN" 2.000000000000000e+01
"VOUT" 2.006763195928214e+01
"VMID" 2.004013552689860e+01
"CLK1" 0.000000000000000e+00
"CLK2" 4.000000000000000e+01
"0" 0.000000000000000e+00
"time" 1.586913033284759e-04
"VIN" 2.000000000000000e+01
"VOUT" 2.006763196427034e+01
"VMID" 2.003932960632573e+01
"CLK1" 0.000000000000000e+00
"CLK2" 4.000000000000000e+01
"0" 0.000000000000000e+00
"time" 1.611913033284784e-04
"VIN" 2.000000000000000e+01
"VOUT" 2.006763196925848e+01
"VMID" 2.003853989663848e+01
"CLK1" 0.000000000000000e+00
"CLK2" 4.000000000000000e+01
"0" 0.000000000000000e+00
"time" 1.636913033284809e-04
"VIN" 2.000000000000000e+01
"VOUT" 2.006763197424655e+01
"VMID" 2.003776607065917e+01
"CLK1" 0.000000000000000e+00
"CLK2" 4.000000000000000e+01
"0" 0.000000000000000e+00
"time" 1.661913033284834e-04
"VIN" 2.000000000000000e+01
"VOUT" 2.006763197923456e+01
"VMID" 2.003700780785723e+01
"CLK1" 0.000000000000000e+00
"CLK2" 4.000000000000000e+01
"0" 0.000000000000000e+00
"time" 1.686913033284859e-04
"VIN" 2.000000000000000e+01
"VOUT" 2.006763198422249e+01
"VMID" 2.003626479421228e+01
"CLK1" 0.000000000000000e+00
"CLK2" 4.000000000000000e+01
"0" 0.000000000000000e+00
"time" 1.711913033284884e-04
"VIN" 2.000000000000000e+01
"VOUT" 2.006763198921037e+01
"VMID" 2.003553672208031e+01
"CLK1" 0.000000000000000e+00
"CLK2" 4.000000000000000e+01
"0" 0.000000000000000e+00
"time" 1.736913033284909e-04
"VIN" 2.000000000000000e+01
"VOUT" 2.006763199419818e+01
"VMID" 2.003482329006259e+01
"CLK1" 0.000000000000000e+00
"CLK2" 4.000000000000000e+01
"0" 0.000000000000000e+00
"time" 1.761913033284934e-04
"VIN" 2.000000000000000e+01
"VOUT" 2.006763199918593e+01
"VMID" 2.003412420287735e+01
"CLK1" 0.000000000000000e+00
"CLK2" 4.000000000000000e+01
"0" 0.000000000000000e+00
"time" 1.786913033284959e-04
"VIN" 2.000000000000000e+01
"VOUT" 2.006763200417362e+01
"VMID" 2.003343917123415e+01
"CLK1" 0.000000000000000e+00
"CLK2" 4.000000000000000e+01
"0" 0.000000000000000e+00
"time" 1.811913033284984e-04
"VIN" 2.000000000000000e+01
"VOUT" 2.006763200916125e+01
"VMID" 2.003276791171088e+01
"CLK1" 0.000000000000000e+00
"CLK2" 4.000000000000000e+01
"0" 0.000000000000000e+00
"time" 1.836913033285009e-04
"VIN" 2.000000000000000e+01
"VOUT" 2.006763201414882e+01
"VMID" 2.003211014663341e+01
"CLK1" 0.000000000000000e+00
"CLK2" 4.000000000000000e+01
"0" 0.000000000000000e+00
"time" 1.861913033285034e-04
"VIN" 2.000000000000000e+01
"VOUT" 2.006763201913634e+01
"VMID" 2.003146560395766e+01
"CLK1" 0.000000000000000e+00
"CLK2" 4.000000000000000e+01
"0" 0.000000000000000e+00
"time" 1.886913033285059e-04
"VIN" 2.000000000000000e+01
"VOUT" 2.006763202412380e+01
"VMID" 2.003083401715421e+01
"CLK1" 0.000000000000000e+00
"CLK2" 4.000000000000000e+01
"0" 0.000000000000000e+00
"time" 1.911913033285084e-04
"VIN" 2.000000000000000e+01
"VOUT" 2.006763202911121e+01
"VMID" 2.003021512509530e+01
"CLK1" 0.000000000000000e+00
"CLK2" 4.000000000000000e+01
"0" 0.000000000000000e+00
"time" 1.936913033285109e-04
"VIN" 2.000000000000000e+01
"VOUT" 2.006763203409857e+01
"VMID" 2.002960867194422e+01
"CLK1" 0.000000000000000e+00
"CLK2" 4.000000000000000e+01
"0" 0.000000000000000e+00
"time" 1.961913033285134e-04
"VIN" 2.000000000000000e+01
"VOUT" 2.006763203908587e+01
"VMID" 2.002901440704697e+01
"CLK1" 0.000000000000000e+00
"CLK2" 4.000000000000000e+01
"0" 0.000000000000000e+00
"time" 1.986913033285159e-04
"VIN" 2.000000000000000e+01
"VOUT" 2.006763204407312e+01
"VMID" 2.002843208482620e+01
"CLK1" 0.000000000000000e+00
"CLK2" 4.000000000000000e+01
"0" 0.000000000000000e+00
"time" 2.011913033285184e-04
"VIN" 2.000000000000000e+01
"VOUT" 2.006763204906032e+01
"VMID" 2.002786146467737e+01
"CLK1" 0.000000000000000e+00
"CLK2" 4.000000000000000e+01
"0" 0.000000000000000e+00
"time" 2.036913033285209e-04
"VIN" 2.000000000000000e+01
"VOUT" 2.006763205404747e+01
"VMID" 2.002730231086709e+01
"CLK1" 0.000000000000000e+00
"CLK2" 4.000000000000000e+01
"0" 0.000000000000000e+00
"time" 2.061913033285234e-04
"VIN" 2.000000000000000e+01
"VOUT" 2.006763205903457e+01
"VMID" 2.002675439243353e+01
"CLK1" 0.000000000000000e+00
"CLK2" 4.000000000000000e+01
"0" 0.000000000000000e+00
"time" 2.086913033285259e-04
"VIN" 2.000000000000000e+01
"VOUT" 2.006763206402163e+01
"VMID" 2.002621748308894e+01
"CLK1" 0.000000000000000e+00
"CLK2" 4.000000000000000e+01
"0" 0.000000000000000e+00
"time" 2.111913033285284e-04
"VIN" 2.000000000000000e+01
"VOUT" 2.006763206900864e+01
"VMID" 2.002569136112418e+01
"CLK1" 0.000000000000000e+00
"CLK2" 4.000000000000000e+01
"0" 0.000000000000000e+00
"time" 2.136913033285309e-04
"VIN" 2.000000000000000e+01
"VOUT" 2.006763207399561e+01
"VMID" 2.002517580931528e+01
"CLK1" 0.000000000000000e+00
"CLK2" 4.000000000000000e+01
"0" 0.000000000000000e+00
"time" 2.161913033285334e-04
"VIN" 2.000000000000000e+01
"VOUT" 2.006763207898253e+01
"VMID" 2.002467061483184e+01
"CLK1" 0.000000000000000e+00
"CLK2" 4.000000000000000e+01
"0" 0.000000000000000e+00
"time" 2.186913033285359e-04
"VIN" 2.000000000000000e+01
"VOUT" 2.006763208396941e+01
"VMID" 2.002417556914746e+01
"CLK1" 0.000000000000000e+00
"CLK2" 4.000000000000000e+01
"0" 0.000000000000000e+00
"time" 2.211913033285384e-04
"VIN" 2.000000000000000e+01
"VOUT" 2.006763208895624e+01
"VMID" 2.002369046795190e+01
"CLK1" 0.000000000000000e+00
"CLK2" 4.000000000000000e+01
"0" 0.000000000000000e+00
"time" 2.236913033285409e-04
"VIN" 2.000000000000000e+01
"VOUT" 2.006763209394304e+01
"VMID" 2.002321511106518e+01
"CLK1" 0.000000000000000e+00
"CLK2" 4.000000000000000e+01
"0" 0.000000000000000e+00
"time" 2.261913033285434e-04
"VIN" 2.000000000000000e+01
"VOUT" 2.006763209892979e+01
"VMID" 2.002274930235338e+01
"CLK1" 0.000000000000000e+00
"CLK2" 4.000000000000000e+01
"0" 0.000000000000000e+00
"time" 2.286913033285459e-04
"VIN" 2.000000000000000e+01
"VOUT" 2.006763210391650e+01
"VMID" 2.002229284964618e+01
"CLK1" 0.000000000000000e+00
"CLK2" 4.000000000000000e+01
"0" 0.000000000000000e+00
"time" 2.311913033285484e-04
"VIN" 2.000000000000000e+01
"VOUT" 2.006763210890318e+01
"VMID" 2.002184556465618e+01
"CLK1" 0.000000000000000e+00
"CLK2" 4.000000000000000e+01
"0" 0.000000000000000e+00
"time" 2.336913033285509e-04
"VIN" 2.000000000000000e+01
"VOUT" 2.006763211388981e+01
"VMID" 2.002140726289978e+01
"CLK1" 0.000000000000000e+00
"CLK2" 4.000000000000000e+01
"0" 0.000000000000000e+00
"time" 2.361913033285534e-04
"VIN" 2.000000000000000e+01
"VOUT" 2.006763211887641e+01
"VMID" 2.002097776361983e+01
"CLK1" 0.000000000000000e+00
"CLK2" 4.000000000000000e+01
"0" 0.000000000000000e+00
"time" 2.386913033285559e-04
"VIN" 2.000000000000000e+01
"VOUT" 2.006763212386297e+01
"VMID" 2.002055688970975e+01
"CLK1" 0.000000000000000e+00
"CLK2" 4.000000000000000e+01
"0" 0.000000000000000e+00
"time" 2.411913033285584e-04
"VIN" 2.000000000000000e+01
"VOUT" 2.006763212884949e+01
"VMID" 2.002014446763926e+01
"CLK1" 0.000000000000000e+00
"CLK2" 4.000000000000000e+01
"0" 0.000000000000000e+00
"time" 2.436913033285609e-04
"VIN" 2.000000000000000e+01
"VOUT" 2.006763213383598e+01
"VMID" 2.001974032738170e+01
"CLK1" 0.000000000000000e+00
"CLK2" 4.000000000000000e+01
"0" 0.000000000000000e+00
"time" 2.461913033285634e-04
"VIN" 2.000000000000000e+01
"VOUT" 2.006763213882244e+01
"VMID" 2.001934430234276e+01
"CLK1" 0.000000000000000e+00
"CLK2" 4.000000000000000e+01
"0" 0.000000000000000e+00
"time" 2.486913033285659e-04
"VIN" 2.000000000000000e+01
"VOUT" 2.006763214380885e+01
"VMID" 2.001895622929072e+01
"CLK1" 0.000000000000000e+00
"CLK2" 4.000000000000000e+01
"0" 0.000000000000000e+00
"time" 2.511913033285684e-04
"VIN" 2.000000000000000e+01
"VOUT" 2.006763214879524e+01
"VMID" 2.001857594828813e+01
"CLK1" 0.000000000000000e+00
"CLK2" 4.000000000000000e+01
"0" 0.000000000000000e+00
"time" 2.536913033285709e-04
"VIN" 2.000000000000000e+01
"VOUT" 2.006763215378160e+01
"VMID" 2.001820330262490e+01
"CLK1" 0.000000000000000e+00
"CLK2" 4.000000000000000e+01
"0" 0.000000000000000e+00
"time" 2.561913033285734e-04
"VIN" 2.000000000000000e+01
"VOUT" 2.006763215876792e+01
"VMID" 2.001783813875275e+01
"CLK1" 0.000000000000000e+00
"CLK2" 4.000000000000000e+01
"0" 0.000000000000000e+00
"time" 2.586913033285759e-04
"VIN" 2.000000000000000e+01
"VOUT" 2.006763216375422e+01
"VMID" 2.001748030622101e+01
"CLK1" 0.000000000000000e+00
"CLK2" 4.000000000000000e+01
"0" 0.000000000000000e+00
"time" 2.611913033285784e-04
"VIN" 2.000000000000000e+01
"VOUT" 2.006763216874048e+01
"VMID" 2.001712965761375e+01
"CLK1" 0.000000000000000e+00
"CLK2" 4.000000000000000e+01
"0" 0.000000000000000e+00
"time" 2.636913033285809e-04
"VIN" 2.000000000000000e+01
"VOUT" 2.006763217372671e+01
"VMID" 2.001678604848817e+01
"CLK1" 0.000000000000000e+00
"CLK2" 4.000000000000000e+01
"0" 0.000000000000000e+00
"time" 2.661913033285834e-04
"VIN" 2.000000000000000e+01
"VOUT" 2.006763217871291e+01
"VMID" 2.001644933731435e+01
"CLK1" 0.000000000000000e+00
"CLK2" 4.000000000000000e+01
"0" 0.000000000000000e+00
"time" 2.686913033285859e-04
"VIN" 2.000000000000000e+01
"VOUT" 2.006763218369909e+01
"VMID" 2.001611938541607e+01