HEADER
"PSFversion" "1.00"
"simulator" "spectre"
"version" "24.1.0.078"
"date" "10:37:14 PM, Sun Jun 21, 2026"
"design" "// 8-PMOS AFE chopper PSS/PAC/PNoise — generated by core.cadence_netlist"
"analysis type" "pnoise"
"analysis name" "pnoise"
"analysis description" "Periodic Noise Analysis `pnoise': freq = (50 mHz -> 200 Hz)"
"xVecSorted" "ascending"
"tolerance.relative" 1.000000000000000e-05
"fundamental frequency" 2.250000000000000e+02
"sweeptype" "absolute"
"relharmnum" 1
"operating point producer" "pss"
"output" "pair of nodes"
"ground" "0"
"positive output signal" "voutp_f"
"negative output signal" "voutn_f"
TYPE
"sweep" FLOAT DOUBLE PROP(
"key" "sweep"
)
"V/sqrt(Hz)" FLOAT DOUBLE PROP(
"units" "V/sqrt(Hz)"
"key" "noise"
)
"V^2/Hz" FLOAT DOUBLE PROP(
"units" "V^2/Hz"
"key" "noise"
)
"pmos_TFT_behavioral" STRUCT(
"flicker" FLOAT DOUBLE PROP(
"units" "V^2/Hz"
)
"thermal" FLOAT DOUBLE PROP(
"units" "V^2/Hz"
)
"total" FLOAT DOUBLE PROP(
"units" "V^2/Hz"
)
) PROP(
"key" "inst"
"master" "pmos_TFT"
)
"resistor" STRUCT(
"rn" FLOAT DOUBLE PROP(
"units" "V^2/Hz"
"noise_type" "thermal"
)
"total" FLOAT DOUBLE PROP(
"units" "V^2/Hz"
)
) PROP(
"key" "inst"
"master" "resistor"
)
SWEEP
"freq" "sweep" PROP(
"sweep_direction" 0
"units" "Hz"
"plot" 0
"grid" 3
)
TRACE
"CH_SW_OUTN_B" "pmos_TFT_behavioral"
"CH_SW_OUTP_B" "pmos_TFT_behavioral"
"CH_SW_OUTN_A" "pmos_TFT_behavioral"
"CH_SW_OUTP_A" "pmos_TFT_behavioral"
"CH_SW_INN_B" "pmos_TFT_behavioral"
"CH_SW_INP_B" "pmos_TFT_behavioral"
"CH_SW_INN_A" "pmos_TFT_behavioral"
"CH_SW_INP_A" "pmos_TFT_behavioral"
"M15" "pmos_TFT_behavioral"
"M14" "pmos_TFT_behavioral"
"M13" "pmos_TFT_behavioral"
"M12" "pmos_TFT_behavioral"
"M11" "pmos_TFT_behavioral"
"M10" "pmos_TFT_behavioral"
"M9" "pmos_TFT_behavioral"
"M8" "pmos_TFT_behavioral"
"M7" "pmos_TFT_behavioral"
"M6" "pmos_TFT_behavioral"
"RLP_N" "resistor"
"RLP_P" "resistor"
"out" "V/sqrt(Hz)"
VALUE
"freq" 5.000000000000000e-02
"CH_SW_OUTN_B" (
6.922767422270679e-13
4.325819581805033e-16
6.927093241852484e-13
)
"CH_SW_OUTP_B" (
6.922767422181153e-13
4.325819581810928e-16
6.927093241762963e-13
)
"CH_SW_OUTN_A" (
6.930079873362386e-13
4.324753669235879e-16
6.934404627031622e-13
)
"CH_SW_OUTP_A" (
6.930079873264272e-13
4.324753669183012e-16
6.934404626933455e-13
)
"CH_SW_INN_B" (
8.188905166641457e-13
6.937306441461177e-15
8.258278231056069e-13
)
"CH_SW_INP_B" (
8.188905164601797e-13
6.937306441331020e-15
8.258278229015107e-13
)
"CH_SW_INN_A" (
8.328699714876082e-13
6.991200545818454e-15
8.398611720334267e-13
)
"CH_SW_INP_A" (
8.328699712562004e-13
6.991200545882073e-15
8.398611718020825e-13
)
"M15" (
1.333340765269772e-11
1.791143253884943e-12
1.512455090658266e-11
)
"M14" (
1.333340763899202e-11
1.791143253857979e-12
1.512455089284999e-11
)
"M13" (
4.823418191811716e-12
1.794048974377540e-12
6.617467166189255e-12
)
"M12" (
4.823418189673391e-12
1.794048974366592e-12
6.617467164039983e-12
)
"M11" (
3.596068730635114e-31
1.278210326420297e-34
3.597346940961534e-31
)
"M10" (
1.505469059548089e-11
7.433409573921559e-12
2.248810016940244e-11
)
"M9" (
1.505469060927232e-11
7.433409574042290e-12
2.248810018331461e-11
)
"M8" (
7.339606106312308e-11
7.673592654253455e-12
8.106965371737653e-11
)
"M7" (
7.339606108354129e-11
7.673592654304246e-12
8.106965373784554e-11
)
"M6" (
9.338520998810678e-30
8.845635441737925e-34
9.339405562354852e-30
)
"RLP_N" (
1.769142025747761e-14
1.769142025747761e-14
)
"RLP_P" (
1.769142025750294e-14
1.769142025750294e-14
)
"out" 1.602306476120335e-05
"freq" 6.294627058970836e-02
"CH_SW_OUTN_B" (
5.500728520433472e-13
4.325818466924305e-16
5.505054338900397e-13
)
"CH_SW_OUTP_B" (
5.500728520433600e-13
4.325818466969536e-16
5.505054338900570e-13
)
"CH_SW_OUTN_A" (
5.506529959429663e-13
4.324752555090533e-16
5.510854711984754e-13
)
"CH_SW_OUTP_A" (
5.506529959442826e-13
4.324752555085295e-16
5.510854711997910e-13
)
"CH_SW_INN_B" (
6.571377338671248e-13
6.937304651184605e-15
6.640750385183094e-13
)
"CH_SW_INP_B" (
6.571377336802492e-13
6.937304651131986e-15
6.640750383313812e-13
)
"CH_SW_INN_A" (
6.682555738337750e-13
6.991198741093441e-15
6.752467725748683e-13
)
"CH_SW_INP_A" (
6.682555736163027e-13
6.991198741062323e-15
6.752467723573651e-13
)
"M15" (
1.244038093832968e-11
1.791142787381684e-12
1.423152372571136e-11
)
"M14" (
1.244038093211999e-11
1.791142787382652e-12
1.423152371950264e-11
)
"M13" (
4.489667621121408e-12
1.794048506992338e-12
6.283716128113746e-12
)
"M12" (
4.489667620689336e-12
1.794048507008344e-12
6.283716127697680e-12
)
"M11" (
1.705409386372766e-31
1.741219630834229e-34
1.707150606003600e-31
)
"M10" (
1.412263257795779e-11
7.433407649136428e-12
2.155604022709422e-11
)
"M9" (
1.412263258390171e-11
7.433407649147039e-12
2.155604023304875e-11
)
"M8" (
6.885286797640283e-11
7.673590667248781e-12
7.652645864365160e-11
)
"M7" (
6.885286798385925e-11
7.673590667228178e-12
7.652645865108743e-11
)
"M6" (
2.458865003145175e-30
6.928336728466982e-34
2.459557836818022e-30
)
"RLP_N" (
1.769141573180205e-14
1.769141573180205e-14
)
"RLP_P" (
1.769141573192776e-14
1.769141573192776e-14
)
"out" 1.555997062077340e-05
"freq" 7.924465962305569e-02
"CH_SW_OUTN_B" (
4.371162501788810e-13
4.325816700365901e-16
4.375488318489175e-13
)
"CH_SW_OUTP_B" (
4.371162501742940e-13
4.325816700384158e-16
4.375488318443324e-13
)
"CH_SW_OUTN_A" (
4.375763700216420e-13
4.324750788963608e-16
4.380088451005384e-13
)
"CH_SW_OUTP_A" (
4.375763700155772e-13
4.324750788914400e-16
4.380088450944686e-13
)
"CH_SW_INN_B" (
5.286528834372714e-13
6.937301813671590e-15
5.355901852509430e-13
)
"CH_SW_INP_B" (
5.286528830769378e-13
6.937301813334247e-15
5.355901848902720e-13
)
"CH_SW_INN_A" (
5.374976617445931e-13
6.991195881144298e-15
5.444888576257374e-13
)
"CH_SW_INP_A" (
5.374976613794928e-13
6.991195881231146e-15
5.444888572607239e-13
)
"M15" (
1.173102276224080e-11
1.791142048234425e-12
1.352216481047522e-11
)
"M14" (
1.173102275013762e-11
1.791142048216126e-12
1.352216479835375e-11
)
"M13" (
4.224559458434751e-12
1.794047766453077e-12
6.018607224887828e-12
)
"M12" (
4.224559456343663e-12
1.794047766453290e-12
6.018607222796953e-12
)
"M11" (
3.802775408885078e-31
2.524210794068881e-34
3.805299619679147e-31
)
"M10" (
1.338227038899013e-11
7.433404598902536e-12
2.081567498789267e-11
)
"M9" (
1.338227040197924e-11
7.433404598987679e-12
2.081567500096692e-11
)
"M8" (
6.524407077940850e-11
7.673587518463144e-12
7.291765829787164e-11
)
"M7" (
6.524407079893079e-11
7.673587518490232e-12
7.291765831742102e-11
)
"M6" (
1.295170941181317e-29
2.031743998260809e-33
1.295374115581143e-29
)
"RLP_N" (
1.769140855812704e-14
1.769140855812704e-14
)
"RLP_P" (
1.769140855855109e-14
1.769140855855109e-14
)
"out" 1.518205740065221e-05
"freq" 9.976311574844400e-02
"CH_SW_OUTN_B" (
3.473915855896889e-13
4.325813900675538e-16
3.478241669797565e-13
)
"CH_SW_OUTP_B" (
3.473915855752972e-13
4.325813900690238e-16
3.478241669653662e-13
)
"CH_SW_OUTN_A" (
3.477563669821418e-13
4.324747991090368e-16
3.481888417812508e-13
)
"CH_SW_OUTP_A" (
3.477563669846041e-13
4.324747991080590e-16
3.481888417837122e-13
)
"CH_SW_INN_B" (
4.265936771174548e-13
6.937297317659134e-15
4.335309744351140e-13
)
"CH_SW_INP_B" (
4.265936771711724e-13
6.937297317902778e-15
4.335309744890752e-13
)
"CH_SW_INN_A" (
4.336328964679908e-13
6.991191349337203e-15
4.406240878173281e-13
)
"CH_SW_INP_A" (
4.336328964353437e-13
6.991191349356377e-15
4.406240877847001e-13
)
"M15" (
1.116755671345134e-11
1.791140876808851e-12
1.295869759026019e-11
)
"M14" (
1.116755671187480e-11
1.791140876802603e-12
1.295869758867740e-11
)
"M13" (
4.013975550736339e-12
1.794046592822463e-12
5.808022143558803e-12
)
"M12" (
4.013975551107238e-12
1.794046592837535e-12
5.808022143944773e-12
)
"M11" (
7.726775747601014e-32
1.303342678889433e-34
7.739809174389909e-32
)
"M10" (
1.279417645345695e-11
7.433399765000137e-12
2.022757621845709e-11
)
"M9" (
1.279417645560412e-11
7.433399765022786e-12
2.022757622062691e-11
)
"M8" (
6.237748493740877e-11
7.673582528341918e-12
7.005106746575068e-11
)
"M7" (
6.237748494013199e-11
7.673582528332700e-12
7.005106746846469e-11
)
"M6" (
4.844355919319564e-31
2.793143298194946e-34
4.847149062617759e-31
)
"RLP_N" (
1.769139718909956e-14
1.769139718909956e-14
)
"RLP_P" (
1.769139718928724e-14
1.769139718928724e-14
)
"out" 1.487502758908888e-05
"freq" 1.255943215754790e-01
"CH_SW_OUTN_B" (
2.761206926012159e-13
4.325809463405622e-16
2.765532735475565e-13
)
"CH_SW_OUTP_B" (
2.761206925880041e-13
4.325809463379092e-16
2.765532735343420e-13
)
"CH_SW_OUTN_A" (
2.764097438813535e-13
4.324743555746385e-16
2.768422182369282e-13
)
"CH_SW_OUTP_A" (
2.764097438819251e-13
4.324743555714407e-16
2.768422182374966e-13
)
"CH_SW_INN_B" (
3.455250862967596e-13
6.937290190969967e-15
3.524623764877296e-13
)
"CH_SW_INP_B" (
3.455250863109054e-13
6.937290191066115e-15
3.524623765019715e-13
)
"CH_SW_INN_A" (
3.511300984412981e-13
6.991184166239873e-15
3.581212826075380e-13
)
"CH_SW_INP_A" (
3.511300984092995e-13
6.991184166280570e-15
3.581212825755800e-13
)
"M15" (
1.071997535115460e-11
1.791139020192653e-12
1.251111437134726e-11
)
"M14" (
1.071997534954818e-11
1.791139020177384e-12
1.251111436972556e-11
)
"M13" (
3.846701244064824e-12
1.794044732717445e-12
5.640745976782270e-12
)
"M12" (
3.846701243712345e-12
1.794044732713274e-12
5.640745976425619e-12
)
"M11" (
7.692863062336781e-33
3.614035504307041e-35
7.729003417379851e-33
)
"M10" (
1.232703160317677e-11
7.433392103512145e-12
1.976042370668892e-11
)
"M9" (
1.232703160548205e-11
7.433392103570610e-12
1.976042370905266e-11
)
"M8" (
6.010044936812459e-11
7.673574619289390e-12
6.777402398741398e-11
)
"M7" (
6.010044937229767e-11
7.673574619293605e-12
6.777402399159128e-11
)
"M6" (
4.925323089240231e-31
4.187619887815550e-34
4.929510709128046e-31
)
"RLP_N" (
1.769137917018160e-14
1.769137917018160e-14
)
"RLP_P" (
1.769137917053205e-14
1.769137917053205e-14
)
"out" 1.462654973495450e-05
"freq" 1.581138830084190e-01
"CH_SW_OUTN_B" (
2.195081361341003e-13
4.325802430898348e-16
2.199407163771902e-13
)
"CH_SW_OUTP_B" (
2.195081361384026e-13
4.325802430871425e-16
2.199407163814897e-13
)
"CH_SW_OUTN_A" (
2.197370328025426e-13
4.324736526258915e-16
2.201695064551685e-13
)
"CH_SW_OUTP_A" (
2.197370328019722e-13
4.324736526242298e-16
2.201695064545965e-13
)
"CH_SW_INN_B" (
2.811299080398464e-13
6.937278896057410e-15
2.880671869359038e-13
)
"CH_SW_INP_B" (
2.811299079388141e-13
6.937278895796086e-15
2.880671868346101e-13
)
"CH_SW_INN_A" (
2.855956873365963e-13
6.991172781933833e-15
2.925868601185302e-13
)
"CH_SW_INP_A" (
2.855956872548244e-13
6.991172782036600e-15
2.925868600368610e-13
)
"M15" (
1.036444203182540e-11
1.791136077698766e-12
1.215557810952417e-11
)
"M14" (
1.036444202932747e-11
1.791136077664121e-12
1.215557810699159e-11
)
"M13" (
3.713828107162532e-12
1.794041784681565e-12
5.507869891844097e-12
)
"M12" (
3.713828106846911e-12
1.794041784669723e-12
5.507869891516634e-12
)
"M11" (
4.651590175341104e-32
1.412686170361991e-34
4.665717037044724e-32
)
"M10" (
1.195595710226175e-11
7.433379961040774e-12
1.938933706330253e-11
)
"M9" (
1.195595710559396e-11
7.433379961155720e-12
1.938933706674968e-11
)
"M8" (
5.829169595813873e-11
7.673562084453199e-12
6.596525804259193e-11
)
"M7" (
5.829169596358692e-11
7.673562084491925e-12
6.596525804807885e-11
)
"M6" (
1.466467457204683e-30
9.486756010087657e-34
1.467416132805692e-30
)
"RLP_N" (
1.769135061240930e-14
1.769135061240930e-14
)
"RLP_P" (
1.769135061300287e-14
1.769135061300287e-14
)
"out" 1.442612205207689e-05
"freq" 1.990535852767487e-01
"CH_SW_OUTN_B" (
1.745390909297156e-13
4.325791285245278e-16
1.749716700582401e-13
)
"CH_SW_OUTP_B" (
1.745390909306184e-13
4.325791285204445e-16
1.749716700591389e-13
)
"CH_SW_OUTN_A" (
1.747202050140783e-13
4.324725385573716e-16
1.751526775526357e-13
)
"CH_SW_OUTP_A" (
1.747202050172067e-13
4.324725385604404e-16
1.751526775557671e-13
)
"CH_SW_INN_B" (
2.299788563258690e-13
6.937260995348683e-15
2.369161173212177e-13
)
"CH_SW_INP_B" (
2.299788562620929e-13
6.937260995194685e-15
2.369161172572876e-13
)
"CH_SW_INN_A" (
2.335397085931897e-13
6.991154739430924e-15
2.405308633326206e-13
)
"CH_SW_INP_A" (
2.335397085351845e-13
6.991154739562892e-15
2.405308632747474e-13
)
"M15" (
1.008202124111460e-11
1.791131414217519e-12
1.187315265533212e-11
)
"M14" (
1.008202124253961e-11
1.791131414195240e-12
1.187315265673485e-11
)
"M13" (
3.608279425375794e-12
1.794037112429395e-12
5.402316537805190e-12
)
"M12" (
3.608279425882456e-12
1.794037112423437e-12
5.402316538305893e-12
)
"M11" (
6.080818415579854e-34
6.066541515622192e-35
6.687472567142073e-34
)
"M10" (
1.166118938131497e-11
7.433360716926922e-12
1.909455009824190e-11
)
"M9" (
1.166118938055678e-11
7.433360716977480e-12
1.909455009753426e-11
)
"M8" (
5.685488979812555e-11
7.673542218453523e-12
6.452843201657906e-11
)
"M7" (
5.685488979531926e-11
7.673542218473517e-12
6.452843201379278e-11
)
"M6" (
3.007561995544715e-32
6.027951619527333e-34
3.067841511739988e-32
)
"RLP_N" (
1.769130535181973e-14
1.769130535181973e-14
)
"RLP_P" (
1.769130535256308e-14
1.769130535256308e-14
)
"out" 1.426490195835366e-05
"freq" 2.505936168136362e-01
"CH_SW_OUTN_B" (
1.388187909933317e-13
4.325773620679529e-16
1.392513683553997e-13
)
"CH_SW_OUTP_B" (
1.388187909840671e-13
4.325773620638893e-16
1.392513683461310e-13
)
"CH_SW_OUTN_A" (
1.389619499370934e-13
4.324707729105975e-16
1.393944207100040e-13
)
"CH_SW_OUTP_A" (
1.389619499391294e-13
4.324707729122240e-16
1.393944207120416e-13
)
"CH_SW_INN_B" (
1.893479383805641e-13
6.937232624854680e-15
1.962851710054188e-13
)
"CH_SW_INP_B" (
1.893479384308966e-13
6.937232625140796e-15
1.962851710560374e-13
)
"CH_SW_INN_A" (
1.921899788150744e-13
6.991126144313754e-15
1.991811049593882e-13
)
"CH_SW_INP_A" (
1.921899788199908e-13
6.991126144363266e-15
1.991811049643541e-13
)
"M15" (
9.857669770042894e-12
1.791124023092796e-12
1.164879379313569e-11
)
"M14" (
9.857669771346298e-12
1.791124023070859e-12
1.164879379441716e-11
)
"M13" (
3.524433180644694e-12
1.794029707396216e-12
5.318462888040911e-12
)
"M12" (
3.524433180998993e-12
1.794029707394948e-12
5.318462888393942e-12
)
"M11" (
4.320363047653349e-33
8.779782270383035e-35
4.408160870357180e-33
)
"M10" (
1.142702701105519e-11
7.433330216969745e-12
1.886035722802493e-11
)
"M9" (
1.142702701053313e-11
7.433330217009739e-12
1.886035722754287e-11
)
"M8" (
5.571349636169952e-11
7.673510732912082e-12
6.338700709461160e-11
)
"M7" (
5.571349636165278e-11
7.673510732914237e-12
6.338700709456702e-11
)
"M6" (
1.694735660028536e-31
4.629349081642278e-34
1.699365009110178e-31
)
"RLP_N" (
1.769123361928915e-14
1.769123361928915e-14
)
"RLP_P" (
1.769123362016640e-14
1.769123362016640e-14
)
"out" 1.413551727408949e-05
"freq" 3.154786722400967e-01
"CH_SW_OUTN_B" (
1.104449995466971e-13
4.325745624669788e-16
1.108775741091641e-13
)
"CH_SW_OUTP_B" (
1.104449995315480e-13
4.325745624541918e-16
1.108775740940022e-13
)
"CH_SW_OUTN_A" (
1.105580095290456e-13
4.324679745148711e-16
1.109904775035605e-13
)
"CH_SW_OUTP_A" (
1.105580095305600e-13
4.324679745153495e-16
1.109904775050754e-13
)
"CH_SW_INN_B" (
1.570733894229796e-13
6.937187660644738e-15
1.640105770836243e-13
)
"CH_SW_INP_B" (
1.570733894085456e-13
6.937187660601130e-15
1.640105770691467e-13
)
"CH_SW_INN_A" (
1.593444541321923e-13
6.991080824331852e-15
1.663355349565242e-13
)
"CH_SW_INP_A" (
1.593444540894993e-13
6.991080824505951e-15
1.663355349140053e-13
)
"M15" (
9.679434892845021e-12
1.791112309149548e-12
1.147054720199457e-11
)
"M14" (
9.679434894254925e-12
1.791112309131398e-12
1.147054720338632e-11
)
"M13" (
3.457822406185842e-12
1.794017971416440e-12
5.251840377602283e-12
)
"M12" (
3.457822406524376e-12
1.794017971414121e-12
5.251840377938497e-12
)
"M11" (
1.021478091900681e-32
1.937054672270274e-34
1.040848638623384e-32
)
"M10" (
1.124099370780940e-11
7.433281878657163e-12
1.867427558646656e-11
)
"M9" (
1.124099370726924e-11
7.433281878653344e-12
1.867427558592259e-11
)
"M8" (
5.480670164617932e-11
7.673460832556800e-12
6.248016247873612e-11
)
"M7" (
5.480670164522252e-11
7.673460832552241e-12
6.248016247777477e-11
)
"M6" (
8.992166155789664e-32
1.527083149441502e-33
9.144874470733815e-32
)
"RLP_N" (
1.769111993216859e-14
1.769111993216859e-14
)
"RLP_P" (
1.769111993367985e-14
1.769111993367985e-14
)
"out" 1.403187307015434e-05
"freq" 3.971641173621409e-01
"CH_SW_OUTN_B" (
8.790670786217433e-14
4.325701254927754e-16
8.833927798766710e-14
)
"CH_SW_OUTP_B" (
8.790670785276934e-14
4.325701254737791e-16
8.833927797824311e-14
)
"CH_SW_OUTN_A" (
8.799576955548735e-14
4.324635394746427e-16
8.842823309496199e-14
)
"CH_SW_OUTP_A" (
8.799576955571204e-14
4.324635394756452e-16
8.842823309518768e-14
)
"CH_SW_INN_B" (
1.314364401761806e-13
6.937116398787970e-15
1.383735565749686e-13
)
"CH_SW_INP_B" (
1.314364401409064e-13
6.937116398538517e-15
1.383735565394449e-13
)
"CH_SW_INN_A" (
1.332539583816007e-13
6.991008998648857e-15
1.402449673802496e-13
)
"CH_SW_INP_A" (
1.332539583356200e-13
6.991008998983528e-15
1.402449673346035e-13
)
"M15" (
9.537816726577232e-12
1.791093744106069e-12
1.132891047068330e-11
)
"M14" (
9.537816728028694e-12
1.791093744080140e-12
1.132891047210883e-11
)
"M13" (
3.404896906317948e-12
1.793999371442523e-12
5.198896277760470e-12
)
"M12" (
3.404896906644050e-12
1.793999371433832e-12
5.198896278077881e-12
)
"M11" (
1.780721568841246e-32
3.874993372276158e-34
1.819471502564008e-32
)
"M10" (
1.109317255647535e-11
7.433205268762743e-12
1.852637782523809e-11
)
"M9" (
1.109317255590110e-11
7.433205268770850e-12
1.852637782467196e-11
)
"M8" (
5.408616694704657e-11
7.673381747054998e-12
6.175954869410157e-11
)
"M7" (
5.408616694656029e-11
7.673381747071957e-12
6.175954869363224e-11
)
"M6" (
1.823201075556204e-31
2.459041179246213e-33
1.847791487348666e-31
)
"RLP_N" (
1.769093975373282e-14
1.769093975373282e-14
)
"RLP_P" (
1.769093975570864e-14
1.769093975570864e-14
)
"out" 1.394896485355702e-05
"freq" 5.000000000000002e-01
"CH_SW_OUTN_B" (
7.000366837029807e-14
4.325630935576537e-16
7.043623146385573e-14
)
"CH_SW_OUTP_B" (
7.000366836338586e-14
4.325630935346762e-16
7.043623145692053e-14
)
"CH_SW_OUTN_A" (
7.007370711457010e-14
4.324565106889023e-16
7.050616362525900e-14
)
"CH_SW_OUTP_A" (
7.007370711661391e-14
4.324565106939506e-16
7.050616362730786e-14
)
"CH_SW_INN_B" (
1.110717790384393e-13
6.937003460156686e-15
1.180087824985960e-13
)
"CH_SW_INP_B" (
1.110717790526100e-13
6.937003460230282e-15
1.180087825128403e-13
)
"CH_SW_INN_A" (
1.125290267673432e-13
6.990895166392216e-15
1.195199219337354e-13
)
"CH_SW_INP_A" (
1.125290267695468e-13
6.990895166674927e-15
1.195199219362217e-13
)
"M15" (
9.425260552674996e-12
1.791064321356045e-12
1.121632487403104e-11
)
"M14" (
9.425260555945350e-12
1.791064321338574e-12
1.121632487728392e-11
)
"M13" (
3.362833563878828e-12
1.793969893338156e-12
5.156803457216983e-12
)
"M12" (
3.362833564540187e-12
1.793969893330671e-12
5.156803457870857e-12
)
"M11" (
1.329807626403242e-31
5.249724943904203e-34
1.335057351347147e-31
)
"M10" (
1.097567575559087e-11
7.433083853891572e-12
1.840875960948245e-11
)
"M9" (
1.097567575306060e-11
7.433083853861635e-12
1.840875960692223e-11
)
"M8" (
5.351344419531280e-11
7.673256408724379e-12
6.118670060403718e-11
)
"M7" (
5.351344419112581e-11
7.673256408723352e-12
6.118670059984917e-11
)
"M6" (
2.700325680351628e-30
2.341691266430962e-33
2.702667371618058e-30
)
"RLP_N" (
1.769065419852913e-14
1.769065419852913e-14
)
"RLP_P" (
1.769065420069246e-14
1.769065420069246e-14
)
"out" 1.388270508921614e-05
"freq" 6.294627058970840e-01
"CH_SW_OUTN_B" (
5.578247678958890e-14
4.325519491814327e-16
5.621502873877032e-14
)
"CH_SW_OUTP_B" (
5.578247677749466e-14
4.325519491478954e-16
5.621502872664255e-14
)
"CH_SW_OUTN_A" (
5.583740485889363e-14
4.324453711976199e-16
5.626985023009124e-14
)
"CH_SW_OUTP_A" (
5.583740486093263e-14
4.324453712035084e-16
5.626985023213613e-14
)
"CH_SW_INN_B" (
9.489483327181260e-14
6.936824471536120e-15
1.018316577433487e-13
)
"CH_SW_INP_B" (
9.489483329742728e-14
6.936824471784554e-15
1.018316577692118e-13
)
"CH_SW_INN_A" (
9.606590090056824e-14
6.990714761880295e-15
1.030566156624485e-13
)
"CH_SW_INP_A" (
9.606590089667221e-14
6.990714762185529e-15
1.030566156588577e-13
)
"M15" (
9.335751688383533e-12
1.791017691431538e-12
1.112676937981507e-11
)
"M14" (
9.335751691971834e-12
1.791017691406306e-12
1.112676938337814e-11
)
"M13" (
3.329384996898630e-12
1.793923175676539e-12
5.123308172575169e-12
)
"M12" (
3.329384997715100e-12
1.793923175673119e-12
5.123308173388218e-12
)
"M11" (
1.583263422684682e-31
8.842943903209688e-34
1.592106366587892e-31
)
"M10" (
1.088222114952025e-11
7.432891432487726e-12
1.831511258200798e-11
)
"M9" (
1.088222114661757e-11
7.432891432430491e-12
1.831511257904806e-11
)
"M8" (
5.305791182099690e-11
7.673057769322716e-12
6.073096959031962e-11
)
"M7" (
5.305791181619373e-11
7.673057769324867e-12
6.073096958551860e-11
)
"M6" (
4.352460614241803e-30
4.589189489616866e-33
4.357049803731420e-30
)
"RLP_N" (
1.769020164327415e-14
1.769020164327415e-14
)
"RLP_P" (
1.769020164615273e-14
1.769020164615273e-14
)
"out" 1.382976667026967e-05
"freq" 7.924465962305572e-01
"CH_SW_OUTN_B" (
4.448579939429494e-14
4.325342877312888e-16
4.491833368202623e-14
)
"CH_SW_OUTP_B" (
4.448579938946992e-14
4.325342876970886e-16
4.491833367716701e-14
)
"CH_SW_OUTN_A" (
4.452872441428100e-14
4.324277175271608e-16
4.496115213180816e-14
)
"CH_SW_OUTP_A" (
4.452872441721859e-14
4.324277175390352e-16
4.496115213475762e-14
)
"CH_SW_INN_B" (
8.204399452085734e-14
6.936540812925143e-15
8.898053533378249e-14
)
"CH_SW_INP_B" (
8.204399452909233e-14
6.936540812911972e-15
8.898053534200430e-14
)
"CH_SW_INN_A" (
8.298773189797634e-14
6.990428859582014e-15
8.997816075755835e-14
)
"CH_SW_INP_A" (
8.298773190520373e-14
6.990428860001582e-15
8.997816076520532e-14
)
"M15" (
9.264490729102369e-12
1.790943792929416e-12
1.105543452203179e-11
)
"M14" (
9.264490732938109e-12
1.790943792907180e-12
1.105543452584529e-11
)
"M13" (
3.302758292455822e-12
1.793849138139956e-12
5.096607430595778e-12
)
"M12" (
3.302758293283418e-12
1.793849138136831e-12
5.096607431420249e-12
)
"M11" (
2.558900979670782e-31
1.565019624740947e-33
2.574551175918191e-31
)
"M10" (
1.080779229674045e-11
7.432586485554581e-12
1.824037878229503e-11
)
"M9" (
1.080779229353379e-11
7.432586485452614e-12
1.824037877898641e-11
)
"M8" (
5.269511777809375e-11
7.672742968200073e-12
6.036786074629383e-11
)
"M7" (
5.269511777306726e-11
7.672742968180205e-12
6.036786074124747e-11
)
"M6" (
6.733802858678784e-30
7.643877984537994e-33
6.741446736663323e-30
)
"RLP_N" (
1.768948444033890e-14
1.768948444033890e-14
)
"RLP_P" (
1.768948444395149e-14
1.768948444395149e-14
)
"out" 1.378744422623078e-05
"freq" 9.976311574844405e-01
"CH_SW_OUTN_B" (
3.551204157717672e-14
4.325062992271858e-16
3.594454787640390e-14
)
"CH_SW_OUTP_B" (
3.551204157604941e-14
4.325062991853200e-16
3.594454787523473e-14
)
"CH_SW_OUTN_A" (
3.554543197056781e-14
4.323997413317940e-16
3.597783171189960e-14
)
"CH_SW_OUTP_A" (
3.554543197436846e-14
4.323997413515216e-16
3.597783171571998e-14
)
"CH_SW_INN_B" (
7.183470751559616e-14
6.936091292462491e-15
7.877079880805865e-14
)
"CH_SW_INP_B" (
7.183470752305063e-14
6.936091292348601e-15
7.877079881539923e-14
)
"CH_SW_INN_A" (
7.259785788144801e-14
6.989975783664655e-15
7.958783366511266e-14
)
"CH_SW_INP_A" (
7.259785790017054e-14
6.989975784120164e-15
7.958783368429070e-14
)
"M15" (
9.207630912679939e-12
1.790826684200616e-12
1.099845759688056e-11
)
"M14" (
9.207630917003346e-12
1.790826684173546e-12
1.099845760117689e-11
)
"M13" (
3.281517016288424e-12
1.793731809074861e-12
5.075248825363286e-12
)
"M12" (
3.281517017239054e-12
1.793731809074723e-12
5.075248826313777e-12
)
"M11" (
3.952798863292683e-31
2.793050002379730e-33
3.980729363316480e-31
)
"M10" (
1.074836278065165e-11
7.432103228830183e-12
1.818046600948184e-11
)
"M9" (
1.074836277686663e-11
7.432103228686811e-12
1.818046600555344e-11
)
"M8" (
5.240543572945255e-11
7.672244095307122e-12
6.007767982475967e-11
)
"M7" (
5.240543572370450e-11
7.672244095278552e-12
6.007767981898306e-11
)
"M6" (
1.188765259319255e-29
1.409653501769697e-32
1.190174912821025e-29
)
"RLP_N" (
1.768834787160407e-14
1.768834787160407e-14
)
"RLP_P" (
1.768834787604342e-14
1.768834787604342e-14
)
"out" 1.375353202738890e-05
"freq" 1.255943215754791e+00
"CH_SW_OUTN_B" (
2.838330958088927e-14
4.324619479339374e-16
2.881577152882321e-14
)
"CH_SW_OUTP_B" (
2.838330957414911e-14
4.324619478737599e-16
2.881577152202287e-14
)
"CH_SW_OUTN_A" (
2.840912603550436e-14
4.323554093823709e-16
2.884148144488673e-14
)
"CH_SW_OUTP_A" (
2.840912603762714e-14
4.323554093970414e-16
2.884148144702418e-14
)
"CH_SW_INN_B" (
6.372297173342622e-14
6.935378969628323e-15
7.065835070305454e-14
)
"CH_SW_INP_B" (
6.372297174674037e-14
6.935378969596468e-15
7.065835071633684e-14
)
"CH_SW_INN_A" (
6.434266079168278e-14
6.989257827407875e-15
7.133191861909065e-14
)
"CH_SW_INP_A" (
6.434266080270718e-14
6.989257828197294e-15
7.133191863090448e-14
)
"M15" (
9.162062107387332e-12
1.790641110601561e-12
1.095270321798889e-11
)
"M14" (
9.162062111145133e-12
1.790641110555780e-12
1.095270322170091e-11
)
"M13" (
3.264500744650576e-12
1.793545886334232e-12
5.058046630984808e-12
)
"M12" (
3.264500745424038e-12
1.793545886311675e-12
5.058046631735713e-12
)
"M11" (
4.631821393444423e-31
4.482685841092455e-33
4.676648251855347e-31
)
"M10" (
1.070066827278004e-11
7.431337447359590e-12
1.813200572013963e-11
)
"M9" (
1.070066826946860e-11
7.431337447208367e-12
1.813200571667697e-11
)
"M8" (
5.217295397734408e-11
7.671453568052661e-12
5.984440754539673e-11
)
"M7" (
5.217295397253069e-11
7.671453568045591e-12
5.984440754057627e-11
)
"M6" (
1.111954109240542e-29
2.120551197383718e-32
1.114074660437925e-29
)
"RLP_N" (
1.768654683477473e-14
1.768654683477473e-14
)
"RLP_P" (
1.768654684070890e-14
1.768654684070890e-14
)
"out" 1.372621558782637e-05
"freq" 1.581138830084191e+00
"CH_SW_OUTN_B" (
2.271995915100586e-14
4.323916746041307e-16
2.315235082560999e-14
)
"CH_SW_OUTP_B" (
2.271995914461350e-14
4.323916745252236e-16
2.315235081913872e-14
)
"CH_SW_OUTN_A" (
2.273975910233569e-14
4.322851668168271e-16
2.317204426915251e-14
)
"CH_SW_OUTP_A" (
2.273975910525484e-14
4.322851668410618e-16
2.317204427209590e-14
)
"CH_SW_INN_B" (
5.727630313573546e-14
6.934250315597190e-15
6.421055345133265e-14
)
"CH_SW_INP_B" (
5.727630315783048e-14
6.934250315735244e-15
6.421055347356573e-14
)
"CH_SW_INN_A" (
5.778201552426974e-14
6.988120247454879e-15
6.477013577172462e-14
)
"CH_SW_INP_A" (
5.778201554411476e-14
6.988120248338671e-15
6.477013579245342e-14
)
"M15" (
9.125227543323272e-12
1.790347074629410e-12
1.091557461795268e-11
)
"M14" (
9.125227547110543e-12
1.790347074556713e-12
1.091557462166726e-11
)
"M13" (
3.250756985303816e-12
1.793251297152946e-12
5.044008282456762e-12
)
"M12" (
3.250756986064082e-12
1.793251297110874e-12
5.044008283174956e-12
)
"M11" (
6.686906072004275e-31
7.370544731709465e-33
6.760611519321371e-31
)
"M10" (
1.066201133069069e-11
7.430124088945062e-12
1.809213541963575e-11
)
"M9" (
1.066201132721099e-11
7.430124088798373e-12
1.809213541600937e-11
)
"M8" (
5.198452393394875e-11
7.670201000680535e-12
5.965472493462929e-11
)
"M7" (
5.198452392914779e-11
7.670201000692999e-12
5.965472492984078e-11
)
"M6" (
1.591563612647553e-29
3.325603221186139e-32
1.594889215868739e-29
)
"RLP_N" (
1.768369314478599e-14
1.768369314478599e-14
)
"RLP_P" (
1.768369315222212e-14
1.768369315222212e-14
)
"out" 1.370397256492945e-05
"freq" 1.990535852767488e+00
"CH_SW_OUTN_B" (
1.822037535285810e-14
4.322803440137703e-16
1.865265569687187e-14
)
"CH_SW_OUTP_B" (
1.822037535244294e-14
4.322803440116263e-16
1.865265569645456e-14
)
"CH_SW_OUTN_A" (
1.823539596632913e-14
4.321738861220318e-16
1.866756985245116e-14
)
"CH_SW_OUTP_A" (
1.823539596644541e-14
4.321738861224192e-16
1.866756985256783e-14
)
"CH_SW_INN_B" (
5.215059479256834e-14
6.932462259942683e-15
5.908305705251102e-14
)
"CH_SW_INP_B" (
5.215059479135361e-14
6.932462260030778e-15
5.908305705138438e-14
)
"CH_SW_INN_A" (
5.256574336722270e-14
6.986318038248578e-15
5.955206140547127e-14
)
"CH_SW_INP_A" (
5.256574336354984e-14
6.986318038274799e-15
5.955206140182464e-14
)
"M15" (
9.094959782698134e-12
1.789881252009732e-12
1.088484103470787e-11
)
"M14" (
9.094959782642637e-12
1.789881251992168e-12
1.088484103463480e-11
)
"M13" (
3.239480528437005e-12
1.792784598107602e-12
5.032265126544608e-12
)
"M12" (
3.239480528459669e-12
1.792784598106777e-12
5.032265126566447e-12
)
"M11" (
3.231343393820087e-34
6.787638818262908e-35
3.910107275646378e-34
)
"M10" (
1.063008397996384e-11
7.428201841051515e-12
1.805828582101535e-11
)
"M9" (
1.063008398002692e-11
7.428201841095245e-12
1.805828582112217e-11
)
"M8" (
5.182889528067511e-11
7.668216636608287e-12
5.949711191728340e-11
)
"M7" (
5.182889528054679e-11
7.668216636605173e-12
5.949711191715196e-11
)
"M6" (
6.937256234232765e-33
4.498611227411952e-34
7.387117356973960e-33
)
"RLP_N" (
1.767917222183205e-14
1.767917222183205e-14
)
"RLP_P" (
1.767917222233266e-14
1.767917222233266e-14
)
"out" 1.368547685802290e-05
"freq" 2.505936168136364e+00
"CH_SW_OUTN_B" (
1.464490657766437e-14
4.321040164299145e-16
1.507701059409428e-14
)
"CH_SW_OUTP_B" (
1.464490657917521e-14
4.321040164692163e-16
1.507701059564443e-14
)
"CH_SW_OUTN_A" (
1.465613054476844e-14
4.319976364793290e-16
1.508812818124777e-14
)
"CH_SW_OUTP_A" (
1.465613054375707e-14
4.319976364635234e-16
1.508812818022059e-14
)
"CH_SW_INN_B" (
4.807162185467731e-14
6.929630287710772e-15
5.500125214238808e-14
)
"CH_SW_INP_B" (
4.807162184969120e-14
6.929630287803098e-15
5.500125213749430e-14
)
"CH_SW_INN_A" (
4.841479457598475e-14
6.983463661158724e-15
5.539825823714347e-14
)
"CH_SW_INP_A" (
4.841479456688540e-14
6.983463660748488e-15
5.539825822763389e-14
)
"M15" (
9.069321483975772e-12
1.789143469175384e-12
1.085846495315116e-11
)
"M14" (
9.069321482448227e-12
1.789143469177278e-12
1.085846495162550e-11
)
"M13" (