HEADER
"PSFversion" "1.00"
"simulator" "spectre"
"version" "24.1.0.078"
"date" "10:40:01 PM, Sun Jun 21, 2026"
"design" "// 8-PMOS AFE chopper PSS/PAC/PNoise — generated by core.cadence_netlist"
"analysis type" "pnoise"
"analysis name" "pnoise"
"analysis description" "Periodic Noise Analysis `pnoise': freq = (50 mHz -> 200 Hz)"
"xVecSorted" "ascending"
"tolerance.relative" 1.000000000000000e-05
"fundamental frequency" 2.250000000000000e+02
"sweeptype" "absolute"
"relharmnum" 1
"operating point producer" "pss"
"output" "pair of nodes"
"ground" "0"
"positive output signal" "voutp_f"
"negative output signal" "voutn_f"
TYPE
"sweep" FLOAT DOUBLE PROP(
"key" "sweep"
)
"V/sqrt(Hz)" FLOAT DOUBLE PROP(
"units" "V/sqrt(Hz)"
"key" "noise"
)
"V^2/Hz" FLOAT DOUBLE PROP(
"units" "V^2/Hz"
"key" "noise"
)
"pmos_TFT_behavioral" STRUCT(
"flicker" FLOAT DOUBLE PROP(
"units" "V^2/Hz"
)
"thermal" FLOAT DOUBLE PROP(
"units" "V^2/Hz"
)
"total" FLOAT DOUBLE PROP(
"units" "V^2/Hz"
)
) PROP(
"key" "inst"
"master" "pmos_TFT"
)
"resistor" STRUCT(
"rn" FLOAT DOUBLE PROP(
"units" "V^2/Hz"
"noise_type" "thermal"
)
"total" FLOAT DOUBLE PROP(
"units" "V^2/Hz"
)
) PROP(
"key" "inst"
"master" "resistor"
)
SWEEP
"freq" "sweep" PROP(
"sweep_direction" 0
"units" "Hz"
"plot" 0
"grid" 3
)
TRACE
"CH_SW_OUTN_B" "pmos_TFT_behavioral"
"CH_SW_OUTP_B" "pmos_TFT_behavioral"
"CH_SW_OUTN_A" "pmos_TFT_behavioral"
"CH_SW_OUTP_A" "pmos_TFT_behavioral"
"CH_SW_INN_B" "pmos_TFT_behavioral"
"CH_SW_INP_B" "pmos_TFT_behavioral"
"CH_SW_INN_A" "pmos_TFT_behavioral"
"CH_SW_INP_A" "pmos_TFT_behavioral"
"M15" "pmos_TFT_behavioral"
"M14" "pmos_TFT_behavioral"
"M13" "pmos_TFT_behavioral"
"M12" "pmos_TFT_behavioral"
"M11" "pmos_TFT_behavioral"
"M10" "pmos_TFT_behavioral"
"M9" "pmos_TFT_behavioral"
"M8" "pmos_TFT_behavioral"
"M7" "pmos_TFT_behavioral"
"M6" "pmos_TFT_behavioral"
"RLP_N" "resistor"
"RLP_P" "resistor"
"out" "V/sqrt(Hz)"
VALUE
"freq" 5.000000000000000e-02
"CH_SW_OUTN_B" (
1.170262813754704e-12
1.783163204720115e-15
1.172045976959424e-12
)
"CH_SW_OUTP_B" (
1.170262813737416e-12
1.783163204720298e-15
1.172045976942136e-12
)
"CH_SW_OUTN_A" (
1.162531488849861e-12
1.784114998790837e-15
1.164315603848652e-12
)
"CH_SW_OUTP_A" (
1.162531488848349e-12
1.784114998796453e-15
1.164315603847145e-12
)
"CH_SW_INN_B" (
2.608636306896560e-12
1.969233451761753e-14
2.628328641414177e-12
)
"CH_SW_INP_B" (
2.608636306938058e-12
1.969233451774769e-14
2.628328641455805e-12
)
"CH_SW_INN_A" (
2.582165868152720e-12
1.979311805222137e-14
2.601958986204941e-12
)
"CH_SW_INP_A" (
2.582165868162114e-12
1.979311805218163e-14
2.601958986214295e-12
)
"M15" (
4.698306895476389e-12
1.166005254619170e-12
5.864312150095559e-12
)
"M14" (
4.698306897160585e-12
1.166005254624020e-12
5.864312151784605e-12
)
"M13" (
1.616951170427454e-12
1.169438157911832e-12
2.786389328339286e-12
)
"M12" (
1.616951170756720e-12
1.169438157914943e-12
2.786389328671663e-12
)
"M11" (
4.868379479605183e-33
4.199194817378097e-36
4.872578674422561e-33
)
"M10" (
8.626234267371427e-12
9.810297292295918e-12
1.843653155966734e-11
)
"M9" (
8.626234266435600e-12
9.810297292256090e-12
1.843653155869169e-11
)
"M8" (
3.983214445141732e-11
1.009093488490841e-11
4.992307933632574e-11
)
"M7" (
3.983214445057387e-11
1.009093488489979e-11
4.992307933547366e-11
)
"M6" (
1.085437373759734e-31
3.402749011339807e-34
1.088840122771074e-31
)
"RLP_N" (
2.275451137373741e-14
2.275451137373741e-14
)
"RLP_P" (
2.275451137387014e-14
2.275451137387014e-14
)
"out" 1.300766820720316e-05
"freq" 6.294627058970836e-02
"CH_SW_OUTN_B" (
9.299029117631896e-13
1.783162309888169e-15
9.316860740730777e-13
)
"CH_SW_OUTP_B" (
9.299029117470390e-13
1.783162309884484e-15
9.316860740569234e-13
)
"CH_SW_OUTN_A" (
9.237596020096255e-13
1.784114104242439e-15
9.255437161138679e-13
)
"CH_SW_OUTP_A" (
9.237596020147852e-13
1.784114104251965e-15
9.255437161190372e-13
)
"CH_SW_INN_B" (
2.080219140694932e-12
1.969232463059212e-14
2.099911465325524e-12
)
"CH_SW_INP_B" (
2.080219140825139e-12
1.969232463094890e-14
2.099911465456088e-12
)
"CH_SW_INN_A" (
2.059197892812996e-12
1.979310810863798e-14
2.078991000921634e-12
)
"CH_SW_INP_A" (
2.059197892902166e-12
1.979310810861636e-14
2.078991001010782e-12
)
"M15" (
4.182241494804652e-12
1.166004700718233e-12
5.348246195522884e-12
)
"M14" (
4.182241498627808e-12
1.166004700726252e-12
5.348246199354060e-12
)
"M13" (
1.438282580848807e-12
1.169437602160283e-12
2.607720183009091e-12
)
"M12" (
1.438282581606209e-12
1.169437602165652e-12
2.607720183771861e-12
)
"M11" (
3.012646918499531e-32
2.858676571963697e-35
3.015505595071495e-32
)
"M10" (
8.078136805403126e-12
9.810292362437616e-12
1.788842916784074e-11
)
"M9" (
8.078136802060933e-12
9.810292362369008e-12
1.788842916442994e-11
)
"M8" (
3.729829224778386e-11
1.009092981401269e-11
4.738922206179656e-11
)
"M7" (
3.729829224351926e-11
1.009092981398862e-11
4.738922205750788e-11
)
"M6" (
1.449135271427973e-30
4.798757662809116e-34
1.449615147194254e-30
)
"RLP_N" (
2.275450031489866e-14
2.275450031489866e-14
)
"RLP_P" (
2.275450031510494e-14
2.275450031510494e-14
)
"out" 1.259305398729553e-05
"freq" 7.924465962305569e-02
"CH_SW_OUTN_B" (
7.389781337959111e-13
1.783160891680535e-15
7.407612946875917e-13
)
"CH_SW_OUTP_B" (
7.389781337994828e-13
1.783160891675104e-15
7.407612946911579e-13
)
"CH_SW_OUTN_A" (
7.340962302797330e-13
1.784112686524668e-15
7.358803429662577e-13
)
"CH_SW_OUTP_A" (
7.340962302781864e-13
1.784112686521370e-15
7.358803429647077e-13
)
"CH_SW_INN_B" (
1.660482186019689e-12
1.969230896128398e-14
1.680174494980973e-12
)
"CH_SW_INP_B" (
1.660482186016867e-12
1.969230896131585e-14
1.680174494978183e-12
)
"CH_SW_INN_A" (
1.643789386063129e-12
1.979309234917956e-14
1.663582478412308e-12
)
"CH_SW_INP_A" (
1.643789386044355e-12
1.979309234925063e-14
1.663582478393606e-12
)
"M15" (
3.772315191553083e-12
1.166003822855924e-12
4.938319014409007e-12
)
"M14" (
3.772315194520605e-12
1.166003822850946e-12
4.938319017371552e-12
)
"M13" (
1.296360737704518e-12
1.169436721361630e-12
2.465797459066147e-12
)
"M12" (
1.296360738278930e-12
1.169436721359006e-12
2.465797459637936e-12
)
"M11" (
2.401104174578920e-32
2.835210771754406e-35
2.403939385350675e-32
)
"M10" (
7.642765022178811e-12
9.810284549099626e-12
1.745304957127844e-11
)
"M9" (
7.642765020208892e-12
9.810284549096970e-12
1.745304956930586e-11
)
"M8" (
3.528557039356588e-11
1.009092177717870e-11
4.537649217074458e-11
)
"M7" (
3.528557039142003e-11
1.009092177717594e-11
4.537649216859598e-11
)
"M6" (
7.028477763479114e-31
3.531442840064731e-34
7.032009206319178e-31
)
"RLP_N" (
2.275448278795652e-14
2.275448278795652e-14
)
"RLP_P" (
2.275448278817576e-14
2.275448278817576e-14
)
"out" 1.225371872608721e-05
"freq" 9.976311574844400e-02
"CH_SW_OUTN_B" (
5.873210390391305e-13
1.783158643975903e-15
5.891041976831065e-13
)
"CH_SW_OUTP_B" (
5.873210390223024e-13
1.783158643960007e-15
5.891041976662625e-13
)
"CH_SW_OUTN_A" (
5.834411072910717e-13
1.784110439623604e-15
5.852252177306954e-13
)
"CH_SW_OUTP_A" (
5.834411072955287e-13
1.784110439631113e-15
5.852252177351598e-13
)
"CH_SW_INN_B" (
1.327072914286310e-12
1.969228412697463e-14
1.346765198413285e-12
)
"CH_SW_INP_B" (
1.327072914365320e-12
1.969228412716911e-14
1.346765198492489e-12
)
"CH_SW_INN_A" (
1.313818324992055e-12
1.979306737228741e-14
1.333611392364342e-12
)
"CH_SW_INP_A" (
1.313818325047349e-12
1.979306737239049e-14
1.333611392419739e-12
)
"M15" (
3.446697682177913e-12
1.166002431535321e-12
4.612700113713235e-12
)
"M14" (
3.446697684188902e-12
1.166002431520170e-12
4.612700115709072e-12
)
"M13" (
1.183627705873221e-12
1.169435325389044e-12
2.353063031262265e-12
)
"M12" (
1.183627706254235e-12
1.169435325380362e-12
2.353063031634597e-12
)
"M11" (
1.540126448624265e-32
4.261915605263350e-35
1.544388364229528e-32
)
"M10" (
7.296933058990450e-12
9.810272165851409e-12
1.710720522484186e-11
)
"M9" (
7.296933058629333e-12
9.810272165869836e-12
1.710720522449917e-11
)
"M8" (
3.368679076543384e-11
1.009090903968461e-11
4.377769980511844e-11
)
"M7" (
3.368679076513222e-11
1.009090903968990e-11
4.377769980482213e-11
)
"M6" (
3.873249054988001e-32
4.241093392642998e-34
3.915659988914431e-32
)
"RLP_N" (
2.275445500959865e-14
2.275445500959865e-14
)
"RLP_P" (
2.275445501012622e-14
2.275445501012622e-14
)
"out" 1.197732262545038e-05
"freq" 1.255943215754790e-01
"CH_SW_OUTN_B" (
4.668553338474244e-13
1.783155081624664e-15
4.686384889290491e-13
)
"CH_SW_OUTP_B" (
4.668553338431797e-13
1.783155081613117e-15
4.686384889247928e-13
)
"CH_SW_OUTN_A" (
4.637712980193808e-13
1.784106878430207e-15
4.655554048978110e-13
)
"CH_SW_OUTP_A" (
4.637712980189036e-13
1.784106878431055e-15
4.655554048973347e-13
)
"CH_SW_INN_B" (
1.062236058264056e-12
1.969224476710005e-14
1.081928303031156e-12
)
"CH_SW_INP_B" (
1.062236058294493e-12
1.969224476729271e-14
1.081928303061785e-12
)
"CH_SW_INN_A" (
1.051712539760974e-12
1.979302778660157e-14
1.071505567547575e-12
)
"CH_SW_INP_A" (
1.051712539774118e-12
1.979302778672242e-14
1.071505567560840e-12
)
"M15" (
3.188048277987270e-12
1.166000226421135e-12
4.354048504408405e-12
)
"M14" (
3.188048281753322e-12
1.166000226410044e-12
4.354048508163366e-12
)
"M13" (
1.094079914469047e-12
1.169433112906345e-12
2.263513027375392e-12
)
"M12" (
1.094079915197895e-12
1.169433112899891e-12
2.263513028097786e-12
)
"M11" (
6.207863400053285e-32
1.323326757827965e-34
6.221096667631565e-32
)
"M10" (
7.022222954398993e-12
9.810252539715659e-12
1.683247549411465e-11
)
"M9" (
7.022222952080278e-12
9.810252539681255e-12
1.683247549176153e-11
)
"M8" (
3.241680721150093e-11
1.009088885207389e-11
4.250769606357483e-11
)
"M7" (
3.241680720920074e-11
1.009088885206935e-11
4.250769606127009e-11
)
"M6" (
1.600711968312904e-30
1.092164825139602e-33
1.601804133138044e-30
)
"RLP_N" (
2.275441098409738e-14
2.275441098409738e-14
)
"RLP_P" (
2.275441098466990e-14
2.275441098466990e-14
)
"out" 1.175313705057442e-05
"freq" 1.581138830084190e-01
"CH_SW_OUTN_B" (
3.711657796242819e-13
1.783149435693077e-15
3.729489290599749e-13
)
"CH_SW_OUTP_B" (
3.711657796168324e-13
1.783149435669228e-15
3.729489290525016e-13
)
"CH_SW_OUTN_A" (
3.687139482869686e-13
1.784101234421340e-15
3.704980495213899e-13
)
"CH_SW_OUTP_A" (
3.687139482909504e-13
1.784101234431590e-15
3.704980495253820e-13
)
"CH_SW_INN_B" (
8.518680772938967e-13
1.969218238669519e-14
8.715602596805919e-13
)
"CH_SW_INP_B" (
8.518680773399263e-13
1.969218238690028e-14
8.715602597268266e-13
)
"CH_SW_INN_A" (
8.435139289677681e-13
1.979296504789832e-14
8.633068940156663e-13
)
"CH_SW_INP_A" (
8.435139290016419e-13
1.979296504812228e-14
8.633068940497641e-13
)
"M15" (
2.982592377202689e-12
1.165996731583139e-12
4.148589108785827e-12
)
"M14" (
2.982592382004283e-12
1.165996731574999e-12
4.148589113579283e-12
)
"M13" (
1.022948419363400e-12
1.169429606388714e-12
2.192378025752114e-12
)
"M12" (
1.022948420299960e-12
1.169429606384708e-12
2.192378026684667e-12
)
"M11" (
1.243600931746775e-31
2.848642696040452e-34
1.246449574442816e-31
)
"M10" (
6.804003571560271e-12
9.810221434625884e-12
1.661422500618616e-11
)
"M9" (
6.804003568036587e-12
9.810221434541199e-12
1.661422500257779e-11
)
"M8" (
3.140798007597279e-11
1.009085685713959e-11
4.149883693311239e-11
)
"M7" (
3.140798007122713e-11
1.009085685710073e-11
4.149883692832786e-11
)
"M6" (
3.810886709540353e-30
1.370256351680702e-33
3.812256965892033e-30
)
"RLP_N" (
2.275434120872018e-14
2.275434120872018e-14
)
"RLP_P" (
2.275434120952279e-14
2.275434120952279e-14
)
"out" 1.157195727144101e-05
"freq" 1.990535852767487e-01
"CH_SW_OUTN_B" (
2.951565578757548e-13
1.783140487570644e-15
2.969396983633254e-13
)
"CH_SW_OUTP_B" (
2.951565578636826e-13
1.783140487534413e-15
2.969396983512170e-13
)
"CH_SW_OUTN_A" (
2.932069067831155e-13
1.784092289362709e-15
2.949909990724782e-13
)
"CH_SW_OUTP_A" (
2.932069067895653e-13
1.784092289383730e-15
2.949909990789490e-13
)
"CH_SW_INN_B" (
6.847660895643293e-13
1.969208352073115e-14
7.044581730850605e-13
)
"CH_SW_INP_B" (
6.847660896612349e-13
1.969208352120795e-14
7.044581731824428e-13
)
"CH_SW_INN_A" (
6.781351378534468e-13
1.979286561456466e-14
6.979280034680115e-13
)
"CH_SW_INP_A" (
6.781351379333384e-13
1.979286561482409e-14
6.979280035481625e-13
)
"M15" (
2.819387782478968e-12
1.165991192694268e-12
3.985378975173237e-12
)
"M14" (
2.819387786716641e-12
1.165991192669249e-12
3.985378979385891e-12
)
"M13" (
9.664448941437710e-13
1.169424048985237e-12
2.135868943129008e-12
)
"M12" (
9.664448949650789e-13
1.169424048971261e-12
2.135868943936340e-12
)
"M11" (
1.267734465565337e-31
4.147487486765137e-34
1.271881953052102e-31
)
"M10" (
6.630651044217995e-12
9.810172136715462e-12
1.644082318093346e-11
)
"M9" (
6.630651041526182e-12
9.810172136675828e-12
1.644082317820201e-11
)
"M8" (
3.060657230575849e-11
1.009080614895638e-11
4.069737845471486e-11
)
"M7" (
3.060657230262393e-11
1.009080614893885e-11
4.069737845156277e-11
)
"M6" (
3.176052383436783e-30
1.699848354950026e-33
3.177752231791733e-30
)
"RLP_N" (
2.275423062315034e-14
2.275423062315034e-14
)
"RLP_P" (
2.275423062428578e-14
2.275423062428578e-14
)
"out" 1.142598097829830e-05
"freq" 2.505936168136362e-01
"CH_SW_OUTN_B" (
2.347798991072223e-13
1.783126305954248e-15
2.365630254131766e-13
)
"CH_SW_OUTP_B" (
2.347798991005958e-13
1.783126305919573e-15
2.365630254065153e-13
)
"CH_SW_OUTN_A" (
2.332291469452919e-13
1.784078112586736e-15
2.350132250578786e-13
)
"CH_SW_OUTP_A" (
2.332291469478447e-13
1.784078112601307e-15
2.350132250604460e-13
)
"CH_SW_INN_B" (
5.520312740061542e-13
1.969192683182188e-14
5.717232008379760e-13
)
"CH_SW_INP_B" (
5.520312740422587e-13
1.969192683194968e-14
5.717232008742084e-13
)
"CH_SW_INN_A" (
5.467691116235326e-13
1.979270802547955e-14
5.665618196490121e-13
)
"CH_SW_INP_A" (
5.467691116554765e-13
1.979270802582824e-14
5.665618196813047e-13
)
"M15" (
2.689741793156120e-12
1.165982414258368e-12
3.855724207414488e-12
)
"M14" (
2.689741797790698e-12
1.165982414228494e-12
3.855724212019192e-12
)
"M13" (
9.215598210591394e-13
1.169415241210502e-12
2.090975062269641e-12
)
"M12" (
9.215598219578356e-13
1.169415241193649e-12
2.090975063151485e-12
)
"M11" (
1.897217624184185e-31
7.720647276735060e-34
1.904938271460920e-31
)
"M10" (
6.492929144863694e-12
9.810094005932781e-12
1.630302315079647e-11
)
"M9" (
6.492929141780479e-12
9.810094005866388e-12
1.630302314764686e-11
)
"M8" (
2.996988490387549e-11
1.009072578303948e-11
4.006061068691497e-11
)
"M7" (
2.996988490040823e-11
1.009072578302504e-11
4.006061068343327e-11
)
"M6" (
5.234480761058267e-30
2.989847272907889e-33
5.237470608331175e-30
)
"RLP_N" (
2.275405535925498e-14
2.275405535925498e-14
)
"RLP_P" (
2.275405536065656e-14
2.275405536065656e-14
)
"out" 1.130866468095800e-05
"freq" 3.154786722400967e-01
"CH_SW_OUTN_B" (
1.868205240680445e-13
1.783103830048642e-15
1.886036278980931e-13
)
"CH_SW_OUTP_B" (
1.868205240592265e-13
1.783103829996160e-15
1.886036278892227e-13
)
"CH_SW_OUTN_A" (
1.855866323568872e-13
1.784055644333990e-15
1.873706880012211e-13
)
"CH_SW_OUTP_A" (
1.855866323610814e-13
1.784055644355130e-15
1.873706880054365e-13
)
"CH_SW_INN_B" (
4.465949682430778e-13
1.969167850100324e-14
4.662866467440810e-13
)
"CH_SW_INP_B" (
4.465949682804620e-13
1.969167850103159e-14
4.662866467814936e-13
)
"CH_SW_INN_A" (
4.424200810488463e-13
1.979245826872914e-14
4.622125393175755e-13
)
"CH_SW_INP_A" (
4.424200810879673e-13
1.979245826926231e-14
4.622125393572295e-13
)
"M15" (
2.586747974789683e-12
1.165968501661613e-12
3.752716476451297e-12
)
"M14" (
2.586747979177738e-12
1.165968501615290e-12
3.752716480793029e-12
)
"M13" (
8.859021159091876e-13
1.169401282114033e-12
2.055303398023220e-12
)
"M12" (
8.859021167577531e-13
1.169401282087607e-12
2.055303398845361e-12
)
"M11" (
2.194130871885101e-31
1.218420087955057e-33
2.206315072764652e-31
)
"M10" (
6.383496428342613e-12
9.809970179471250e-12
1.619346660781386e-11
)
"M9" (
6.383496425635452e-12
9.809970179426495e-12
1.619346660506195e-11
)
"M8" (
2.946397847994594e-11
1.009059841423925e-11
3.955457689418518e-11
)
"M7" (
2.946397847654592e-11
1.009059841421740e-11
3.955457689076332e-11
)
"M6" (
4.746440813815721e-30
3.914447481468932e-33
4.750355261297190e-30
)
"RLP_N" (
2.275377759031242e-14
2.275377759031242e-14
)
"RLP_P" (
2.275377759225590e-14
2.275377759225590e-14
)
"out" 1.121457004575361e-05
"freq" 3.971641173621409e-01
"CH_SW_OUTN_B" (
1.487244179800366e-13
1.783068209296423e-15
1.505074861893330e-13
)
"CH_SW_OUTP_B" (
1.487244179731281e-13
1.783068209230598e-15
1.505074861823587e-13
)
"CH_SW_OUTN_A" (
1.477422222435207e-13
1.784020035712193e-15
1.495262422792329e-13
)
"CH_SW_OUTP_A" (
1.477422222472923e-13
1.784020035735200e-15
1.495262422830275e-13
)
"CH_SW_INN_B" (
3.628422265719463e-13
1.969128493544888e-14
3.825335115073951e-13
)
"CH_SW_INP_B" (
3.628422266119403e-13
1.969128493558631e-14
3.825335115475267e-13
)
"CH_SW_INN_A" (
3.595310016851704e-13
1.979206244376136e-14
3.793230641289318e-13
)
"CH_SW_INP_A" (
3.595310017250031e-13
1.979206244443089e-14
3.793230641694339e-13
)
"M15" (
2.504917864268087e-12
1.165946452383409e-12
3.670864316651496e-12
)
"M14" (
2.504917868965210e-12
1.165946452326618e-12
3.670864321291829e-12
)
"M13" (
8.575716230404529e-13
1.169379159144251e-12
2.026950782184704e-12
)
"M12" (
8.575716239505661e-13
1.169379159111931e-12
2.026950783062497e-12
)
"M11" (
3.167032685227369e-31
2.126715446426186e-33
3.188299839691631e-31
)
"M10" (
6.296513713953273e-12
9.809773934093831e-12
1.610628764804710e-11
)
"M9" (
6.296513710872110e-12
9.809773934020901e-12
1.610628764489301e-11
)
"M8" (
2.906185864352773e-11
1.009039655478141e-11
3.915225519830914e-11
)
"M7" (
2.906185863978314e-11
1.009039655475001e-11
3.915225519453315e-11
)
"M6" (
7.815808099910502e-30
7.359105345327891e-33
7.823167205255830e-30
)
"RLP_N" (
2.275333737067089e-14
2.275333737067089e-14
)
"RLP_P" (
2.275333737309357e-14
2.275333737309357e-14
)
"out" 1.113921016823024e-05
"freq" 5.000000000000002e-01
"CH_SW_OUTN_B" (
1.184628192753601e-13
1.783011757113987e-15
1.202458310324741e-13
)
"CH_SW_OUTP_B" (
1.184628192664738e-13
1.783011757028069e-15
1.202458310235018e-13
)
"CH_SW_OUTN_A" (
1.176805587979234e-13
1.783963602752032e-15
1.194645224006755e-13
)
"CH_SW_OUTP_A" (
1.176805588019411e-13
1.783963602784597e-15
1.194645224047257e-13
)
"CH_SW_INN_B" (
2.963127865487494e-13
1.969066120823784e-14
3.160034477569873e-13
)
"CH_SW_INP_B" (
2.963127865948923e-13
1.969066120842202e-14
3.160034478033143e-13
)
"CH_SW_INN_A" (
2.936876041010069e-13
1.979143513572574e-14
3.134790392367326e-13
)
"CH_SW_INP_A" (
2.936876041477321e-13
1.979143513657054e-14
3.134790392843027e-13
)
"M15" (
2.439887900905484e-12
1.165911508421260e-12
3.605799409326744e-12
)
"M14" (
2.439887905410149e-12
1.165911508337477e-12
3.605799413747627e-12
)
"M13" (
8.350576554255569e-13
1.169344098392617e-12
2.004401753818174e-12
)
"M12" (
8.350576562968885e-13
1.169344098344588e-12
2.004401754641476e-12
)
"M11" (
3.782143209871397e-31
3.393837173295408e-33
3.816081581604350e-31
)
"M10" (
6.227330646478291e-12
9.809462921989879e-12
1.603679356846817e-11
)
"M9" (
6.227330643652189e-12
9.809462921941851e-12
1.603679356559404e-11
)
"M8" (
2.874202701516350e-11
1.009007664543093e-11
3.883210366059443e-11
)
"M7" (
2.874202701194843e-11
1.009007664542029e-11
3.883210365736872e-11
)
"M6" (
8.710928248559837e-30
1.134141926146509e-32
8.722269667821302e-30
)
"RLP_N" (
2.275263970550829e-14
2.275263970550829e-14
)
"RLP_P" (
2.275263970866567e-14
2.275263970866567e-14
)
"out" 1.107890282220745e-05
"freq" 6.294627058970840e-01
"CH_SW_OUTN_B" (
9.442417958448127e-14
1.782922293757891e-15
9.620710187823916e-14
)
"CH_SW_OUTP_B" (
9.442417957748429e-14
1.782922293661486e-15
9.620710187114577e-14
)
"CH_SW_OUTN_A" (
9.380074098963033e-14
1.783874169853190e-15
9.558461515948352e-14
)
"CH_SW_OUTP_A" (
9.380074099308902e-14
1.783874169898922e-15
9.558461516298796e-14
)
"CH_SW_INN_B" (
2.434635172281017e-13
1.968967274834307e-14
2.631531899764448e-13
)
"CH_SW_INP_B" (
2.434635172753575e-13
1.968967274879363e-14
2.631531900241511e-13
)
"CH_SW_INN_A" (
2.413832913900313e-13
1.979044100092426e-14
2.611737323909555e-13
)
"CH_SW_INP_A" (
2.413832914369907e-13
1.979044100188640e-14
2.611737324388771e-13
)
"M15" (
2.388185797336227e-12
1.165856130500612e-12
3.554041927836839e-12
)
"M14" (
2.388185802292021e-12
1.165856130407279e-12
3.554041932699300e-12
)
"M13" (
8.171581170413602e-13
1.169288535395094e-12
1.986446652436455e-12
)
"M12" (
8.171581180029101e-13
1.169288535341961e-12
1.986446653344872e-12
)
"M11" (
5.725070623991906e-31
6.014348528586580e-33
5.785214109277772e-31
)
"M10" (
6.172234127377585e-12
9.808970041551742e-12
1.598120416892933e-11
)
"M9" (
6.172234123942441e-12
9.808970041408637e-12
1.598120416535108e-11
)
"M8" (
2.848731825523957e-11
1.008956966492122e-11
3.857688792016079e-11
)
"M7" (
2.848731825145794e-11
1.008956966489641e-11
3.857688791635436e-11
)
"M6" (
1.598887289874991e-29
2.211732330562748e-32
1.601099022205554e-29
)
"RLP_N" (
2.275153407126830e-14
2.275153407126830e-14
)
"RLP_P" (
2.275153407512058e-14
2.275153407512058e-14
)
"out" 1.103063469090341e-05
"freq" 7.924465962305572e-01
"CH_SW_OUTN_B" (
7.532834126621947e-14
1.782780522207739e-15
7.711112178842721e-14
)
"CH_SW_OUTP_B" (
7.532834125761860e-14
1.782780522071742e-15
7.711112177969035e-14
)
"CH_SW_OUTN_A" (
7.483106911288548e-14
1.783732446632723e-15
7.661480155951820e-14
)
"CH_SW_OUTP_A" (
7.483106911725506e-14
1.783732446696285e-15
7.661480156395135e-14
)
"CH_SW_INN_B" (
2.014796924459852e-13
1.968810634804537e-14
2.211677987940306e-13
)
"CH_SW_INP_B" (
2.014796924935881e-13
1.968810634841166e-14
2.211677988419997e-13
)
"CH_SW_INN_A" (
1.998323580260134e-13
1.978886560729103e-14
2.196212236333044e-13
)
"CH_SW_INP_A" (
1.998323580756461e-13
1.978886560861982e-14
2.196212236842659e-13
)
"M15" (
2.347043646840752e-12
1.165768373766844e-12
3.512812020607596e-12
)
"M14" (
2.347043651661448e-12
1.165768373643832e-12
3.512812025305280e-12
)
"M13" (
8.029148097343083e-13
1.169200485369259e-12
1.972115295103567e-12
)
"M12" (
8.029148106690388e-13
1.169200485299232e-12
1.972115295968271e-12
)
"M11" (
7.022203978047749e-31
9.495197422147766e-33
7.117155952269227e-31
)
"M10" (
6.128244362118244e-12
9.808188979702096e-12
1.593643334182034e-11
)
"M9" (
6.128244358794199e-12
9.808188979543427e-12
1.593643333833763e-11
)
"M8" (
2.828395726690229e-11
1.008876625891496e-11
3.837272352581726e-11
)
"M7" (
2.828395726319371e-11
1.008876625888381e-11
3.837272352207752e-11
)
"M6" (
1.842973507030562e-29
3.283366687562480e-32
1.846256873718125e-29
)
"RLP_N" (
2.274978198563982e-14
2.274978198563982e-14
)
"RLP_P" (
2.274978199075830e-14
2.274978199075830e-14
)
"out" 1.099193785556755e-05
"freq" 9.976311574844405e-01
"CH_SW_OUTN_B" (
6.015836178323258e-14
1.782555875515401e-15
6.194091765874798e-14
)
"CH_SW_OUTP_B" (
6.015836177560447e-14
1.782555875338811e-15
6.194091765094328e-14
)
"CH_SW_OUTN_A" (
5.976131958838131e-14
1.783507876488943e-15
6.154482746487024e-14
)
"CH_SW_OUTP_A" (
5.976131959268575e-14
1.783507876555355e-15
6.154482746924110e-14
)
"CH_SW_INN_B" (
1.681250300541764e-13
1.968562427975888e-14
1.878106543339353e-13
)
"CH_SW_INP_B" (
1.681250300985305e-13
1.968562428003049e-14
1.878106543785609e-13
)
"CH_SW_INN_A" (
1.668215744150056e-13
1.978636928855812e-14
1.866079437035637e-13
)
"CH_SW_INP_A" (
1.668215744634729e-13
1.978636929034043e-14
1.866079437538133e-13
)
"M15" (
2.314247385462423e-12
1.165629317202959e-12
3.479876702665382e-12
)
"M14" (
2.314247390206969e-12
1.165629317038491e-12
3.479876707245460e-12
)
"M13" (
7.915613341579068e-13
1.169060964065327e-12
1.960622298223234e-12
)
"M12" (
7.915613350773577e-13
1.169060963970964e-12
1.960622299048321e-12
)
"M11" (
8.868290620799921e-31
1.534154055867119e-32
9.021706026386633e-31
)
"M10" (
6.092946351169102e-12
9.806951333801925e-12
1.589989768497103e-11
)
"M9" (
6.092946347863555e-12
9.806951333643142e-12
1.589989768150670e-11
)
"M8" (
2.812078027284123e-11
1.008749320717191e-11
3.820827348001315e-11
)
"M7" (
2.812078026928272e-11
1.008749320715412e-11
3.820827347643683e-11
)
"M6" (
2.315770537196619e-29
5.320557560660130e-32
2.321091094757279e-29
)
"RLP_N" (
2.274700568660468e-14
2.274700568660468e-14
)
"RLP_P" (
2.274700569298716e-14
2.274700569298716e-14
)
"out" 1.096077748282043e-05
"freq" 1.255943215754791e+00
"CH_SW_OUTN_B" (
4.810635382766044e-14
1.782199950190403e-15
4.988855377785084e-14
)
"CH_SW_OUTP_B" (
4.810635382004052e-14
1.782199949977583e-15
4.988855377001810e-14
)
"CH_SW_OUTN_A" (
4.778894293677857e-14
1.783152072442847e-15
4.957209500922142e-14
)
"CH_SW_OUTP_A" (
4.778894294079736e-14
1.783152072531440e-15
4.957209501332880e-14
)
"CH_SW_INN_B" (
1.416224969672767e-13
1.968169174446054e-14
1.613041887117373e-13
)
"CH_SW_INP_B" (
1.416224970093929e-13
1.968169174481171e-14
1.613041887542045e-13
)
"CH_SW_INN_A" (
1.405922194773565e-13
1.978241417550733e-14
1.603746336528639e-13
)
"CH_SW_INP_A" (
1.405922195247464e-13
1.978241417768259e-14
1.603746337024290e-13
)
"M15" (
2.288013931931602e-12
1.165408998923011e-12
3.453422930854613e-12
)
"M14" (
2.288013936704032e-12
1.165408998719762e-12
3.453422935423794e-12
)
"M13" (
7.824805835661816e-13
1.168839909465588e-12
1.951320493031770e-12
)
"M12" (
7.824805844919031e-13
1.168839909349175e-12
1.951320493841079e-12
)
"M11" (
1.163020292918176e-30
2.511796300121882e-32
1.188138255919395e-30
)
"M10" (
6.064345750277852e-12
9.804990434376207e-12
1.586933618465406e-11
)
"M9" (
6.064345746804332e-12
9.804990434131818e-12
1.586933618093615e-11
)
"M8" (
2.798856862660823e-11
1.008547621147855e-11
3.807404483808678e-11
)
"M7" (
2.798856862268565e-11
1.008547621142325e-11
3.807404483410890e-11
)
"M6" (
3.054285639551780e-29
8.755312448869553e-32
3.063040952000650e-29
)
"RLP_N" (
2.274260697850343e-14
2.274260697850343e-14
)
"RLP_P" (
2.274260698658657e-14
2.274260698658657e-14
)
"out" 1.093544754673049e-05
"freq" 1.581138830084191e+00
"CH_SW_OUTN_B" (
3.853045625734932e-14
1.781636136930820e-15
4.031209239428014e-14
)
"CH_SW_OUTP_B" (
3.853045625007605e-14
1.781636136663202e-15
4.031209238673926e-14
)
"CH_SW_OUTN_A" (
3.827631901195473e-14
1.782588451285919e-15
4.005890746324065e-14
)
"CH_SW_OUTP_A" (
3.827631901601032e-14
1.782588451398991e-15
4.005890746740931e-14
)
"CH_SW_INN_B" (
1.205595107467226e-13
1.967546230389598e-14
1.402349730506186e-13
)
"CH_SW_INP_B" (
1.205595107906966e-13
1.967546230453112e-14
1.402349730952278e-13
)
"CH_SW_INN_A" (
1.197462572494466e-13
1.977614897040744e-14
1.395224062198541e-13
)
"CH_SW_INP_A" (
1.197462572985861e-13
1.977614897313324e-14
1.395224062717193e-13
)
"M15" (
2.266888416416871e-12
1.165059997568283e-12
3.431948413985154e-12
)
"M14" (
2.266888421180443e-12
1.165059997314253e-12
3.431948418494696e-12
)
"M13" (
7.751692100594709e-13
1.168489741723643e-12
1.943658951783113e-12
)
"M12" (
7.751692109844526e-13
1.168489741578532e-12
1.943658952562984e-12
)
"M11" (
1.517477106491114e-30
4.056327284256239e-32
1.558040379333677e-30
)
"M10" (
6.040738163392669e-12
9.801884217646581e-12
1.584262238103925e-11
)
"M9" (
6.040738159755231e-12
9.801884217329644e-12
1.584262237708488e-11
)
"M8" (
2.787944480954668e-11
1.008228113393589e-11
3.796172594348257e-11
)
"M7" (
2.787944480526576e-11
1.008228113383663e-11
3.796172593910239e-11
)
"M6" (
4.043533933887458e-29
1.397942357110456e-31
4.057513357458562e-29
)
"RLP_N" (
2.273563908373595e-14
2.273563908373595e-14
)
"RLP_P" (
2.273563909388659e-14
2.273563909388659e-14
)
"out" 1.091446926854722e-05
"freq" 1.990535852767488e+00
"CH_SW_OUTN_B" (
3.092064334090988e-14
1.780743281784713e-15
3.270138662269459e-14
)
"CH_SW_OUTP_B" (
3.092064333343546e-14
1.780743281442191e-15
3.270138661487764e-14
)
"CH_SW_OUTN_A" (
3.071679216116263e-14
1.781695900378138e-15
3.249848806154077e-14
)
"CH_SW_OUTP_A" (
3.071679216532681e-14
1.781695900517603e-15
3.249848806584441e-14
)
"CH_SW_INN_B" (
1.038124556488546e-13
1.966559735691858e-14
1.234780530057732e-13
)
"CH_SW_INP_B" (
1.038124556904732e-13
1.966559735749893e-14
1.234780530479721e-13
)
"CH_SW_INN_A" (
1.031716272833740e-13
1.976622738635397e-14
1.229378546697280e-13
)
"CH_SW_INP_A" (
1.031716273327008e-13
1.976622738989320e-14
1.229378547225940e-13
)
"M15" (
2.249654408500616e-12
1.164507318373469e-12
3.414161726874084e-12
)
"M14" (
2.249654413168465e-12
1.164507318056597e-12
3.414161731225062e-12
)
"M13" (
7.692066183489958e-13
1.167935215436325e-12
1.937141833785321e-12
)
"M12" (
7.692066192559651e-13
1.167935215255159e-12
1.937141834511124e-12
)
"M11" (
1.936143092521258e-30
6.525793860141110e-32
2.001401031122670e-30
)
"M10" (
6.020579829498308e-12
9.796965209680986e-12
1.581754503917929e-11
)
"M9" (
6.020579825748003e-12
9.796965209250965e-12
1.581754503499897e-11
)
"M8" (
2.778627502079233e-11
1.007722140586536e-11
3.786349642665769e-11
)
"M7" (
2.778627501652111e-11
1.007722140575827e-11
3.786349642227938e-11
)
"M6" (
5.226460718255800e-29
2.285520011058018e-31
5.249315918366380e-29
)
"RLP_N" (
2.272460471738288e-14
2.272460471738288e-14
)
"RLP_P" (
2.272460473027904e-14
2.272460473027904e-14
)
"out" 1.089648433320443e-05
"freq" 2.505936168136364e+00
"CH_SW_OUTN_B" (
2.487155006141893e-14
1.779330029133964e-15
2.665088009055290e-14
)
"CH_SW_OUTP_B" (
2.487155005398918e-14
1.779330028703439e-15
2.665088008269262e-14
)
"CH_SW_OUTN_A" (
2.470767609332944e-14
1.780283129227368e-15
2.648795922255681e-14
)
"CH_SW_OUTP_A" (
2.470767609746623e-14
1.780283129401095e-15
2.648795922686733e-14
)
"CH_SW_INN_B" (
9.048644189526562e-14
1.964998265869741e-14
1.101364245539630e-13
)
"CH_SW_INP_B" (
9.048644193782677e-14
1.964998265951414e-14
1.101364245973409e-13
)
"CH_SW_INN_A" (
8.998261886161383e-14
1.975052304113786e-14
1.097331419027517e-13
)
"CH_SW_INP_A" (
8.998261891282758e-14
1.975052304556706e-14
1.097331419583946e-13
)
"M15" (
2.235249881247975e-12
1.163632511103148e-12
3.398882392351122e-12
)
"M14" (
2.235249885693374e-12
1.163632510688633e-12
3.398882396382007e-12
)
"M13" (