HEADER
"PSFversion" "1.00"
"simulator" "spectre"
"version" "24.1.0.078"
"date" "10:40:07 PM, Sun Jun 21, 2026"
"design" "// 8-PMOS AFE chopper PSS/PAC/PNoise — generated by core.cadence_netlist"
"analysis type" "pnoise"
"analysis name" "pnoise"
"analysis description" "Periodic Noise Analysis `pnoise': freq = (50 mHz -> 200 Hz)"
"xVecSorted" "ascending"
"tolerance.relative" 1.000000000000000e-05
"fundamental frequency" 2.250000000000000e+02
"sweeptype" "absolute"
"relharmnum" 1
"operating point producer" "pss"
"output" "pair of nodes"
"ground" "0"
"positive output signal" "voutp_f"
"negative output signal" "voutn_f"
TYPE
"sweep" FLOAT DOUBLE PROP(
"key" "sweep"
)
"V/sqrt(Hz)" FLOAT DOUBLE PROP(
"units" "V/sqrt(Hz)"
"key" "noise"
)
"V^2/Hz" FLOAT DOUBLE PROP(
"units" "V^2/Hz"
"key" "noise"
)
"pmos_TFT_behavioral" STRUCT(
"flicker" FLOAT DOUBLE PROP(
"units" "V^2/Hz"
)
"thermal" FLOAT DOUBLE PROP(
"units" "V^2/Hz"
)
"total" FLOAT DOUBLE PROP(
"units" "V^2/Hz"
)
) PROP(
"key" "inst"
"master" "pmos_TFT"
)
"resistor" STRUCT(
"rn" FLOAT DOUBLE PROP(
"units" "V^2/Hz"
"noise_type" "thermal"
)
"total" FLOAT DOUBLE PROP(
"units" "V^2/Hz"
)
) PROP(
"key" "inst"
"master" "resistor"
)
SWEEP
"freq" "sweep" PROP(
"sweep_direction" 0
"units" "Hz"
"plot" 0
"grid" 3
)
TRACE
"CH_SW_OUTN_B" "pmos_TFT_behavioral"
"CH_SW_OUTP_B" "pmos_TFT_behavioral"
"CH_SW_OUTN_A" "pmos_TFT_behavioral"
"CH_SW_OUTP_A" "pmos_TFT_behavioral"
"CH_SW_INN_B" "pmos_TFT_behavioral"
"CH_SW_INP_B" "pmos_TFT_behavioral"
"CH_SW_INN_A" "pmos_TFT_behavioral"
"CH_SW_INP_A" "pmos_TFT_behavioral"
"M15" "pmos_TFT_behavioral"
"M14" "pmos_TFT_behavioral"
"M13" "pmos_TFT_behavioral"
"M12" "pmos_TFT_behavioral"
"M11" "pmos_TFT_behavioral"
"M10" "pmos_TFT_behavioral"
"M9" "pmos_TFT_behavioral"
"M8" "pmos_TFT_behavioral"
"M7" "pmos_TFT_behavioral"
"M6" "pmos_TFT_behavioral"
"RLP_N" "resistor"
"RLP_P" "resistor"
"out" "V/sqrt(Hz)"
VALUE
"freq" 5.000000000000000e-02
"CH_SW_OUTN_B" (
4.810360970344055e-13
1.810495824848604e-16
4.812171466168904e-13
)
"CH_SW_OUTP_B" (
4.810360968540041e-13
1.810495824214836e-16
4.812171464364257e-13
)
"CH_SW_OUTN_A" (
4.810779114737322e-13
1.804877193463868e-16
4.812583991930785e-13
)
"CH_SW_OUTP_A" (
4.810779114328176e-13
1.804877193584350e-16
4.812583991521760e-13
)
"CH_SW_INN_B" (
6.594170518746002e-13
3.486946685231388e-15
6.629039985598316e-13
)
"CH_SW_INP_B" (
6.594170364658025e-13
3.486946670212072e-15
6.629039831360146e-13
)
"CH_SW_INN_A" (
6.581265935201599e-13
3.511148465122345e-15
6.616377419852823e-13
)
"CH_SW_INP_A" (
6.581265919647078e-13
3.511148466076122e-15
6.616377404307838e-13
)
"M15" (
1.799142197407054e-11
1.431063746644190e-12
1.942248572071473e-11
)
"M14" (
1.799142194417518e-11
1.431063746643267e-12
1.942248569081844e-11
)
"M13" (
6.893541704987710e-12
1.428783169304551e-12
8.322324874292260e-12
)
"M12" (
6.893541695726163e-12
1.428783169301889e-12
8.322324865028052e-12
)
"M11" (
8.385753639387176e-31
1.079018462260273e-33
8.396543824009778e-31
)
"M10" (
1.689410600006717e-11
5.373065325116341e-12
2.226717132518351e-11
)
"M9" (
1.689410604108287e-11
5.373065325073701e-12
2.226717136615657e-11
)
"M8" (
9.017073863547227e-11
5.565101524205690e-12
9.573584015967796e-11
)
"M7" (
9.017073894710664e-11
5.565101524436059e-12
9.573584047154270e-11
)
"M6" (
4.512458365420027e-29
5.550548248980662e-32
4.518008913669007e-29
)
"RLP_N" (
1.688206435422073e-14
1.688206435422073e-14
)
"RLP_P" (
1.688206435505006e-14
1.688206435505006e-14
)
"out" 1.720765652718679e-05
"freq" 6.294627058970836e-02
"CH_SW_OUTN_B" (
3.822101655362970e-13
1.810495482042124e-16
3.823912150845012e-13
)
"CH_SW_OUTP_B" (
3.822101654047131e-13
1.810495481774889e-16
3.823912149528906e-13
)
"CH_SW_OUTN_A" (
3.822434044129999e-13
1.804876845089591e-16
3.824238920975088e-13
)
"CH_SW_OUTP_A" (
3.822434045514825e-13
1.804876845242988e-16
3.824238922360068e-13
)
"CH_SW_INN_B" (
5.287446825422399e-13
3.486946003643092e-15
5.322316285458830e-13
)
"CH_SW_INP_B" (
5.287446987359783e-13
3.486946011388009e-15
5.322316447473662e-13
)
"CH_SW_INN_A" (
5.277268576018724e-13
3.511147797902752e-15
5.312380053997753e-13
)
"CH_SW_INP_A" (
5.277268639535180e-13
3.511147795822206e-15
5.312380117493402e-13
)
"M15" (
1.682029643592838e-11
1.431063473890021e-12
1.825135990981840e-11
)
"M14" (
1.682029657305744e-11
1.431063473846324e-12
1.825136004690377e-11
)
"M13" (
6.453250736877111e-12
1.428782896969651e-12
7.882033633846761e-12
)
"M12" (
6.453250761375705e-12
1.428782896954692e-12
7.882033658330398e-12
)
"M11" (
2.714208508701457e-29
1.107782065677509e-32
2.715316290767135e-29
)
"M10" (
1.584790309726279e-11
5.373064305502588e-12
2.122096740276538e-11
)
"M9" (
1.584790297803221e-11
5.373064305655073e-12
2.122096728368728e-11
)
"M8" (
8.458964552922630e-11
5.565100468340825e-12
9.015474599756713e-11
)
"M7" (
8.458964535710669e-11
5.565100468393717e-12
9.015474582550040e-11
)
"M6" (
7.338955283748387e-28
1.956333092193239e-31
7.340911616840579e-28
)
"RLP_N" (
1.688206116329666e-14
1.688206116329666e-14
)
"RLP_P" (
1.688206116222170e-14
1.688206116222170e-14
)
"out" 1.669456640304139e-05
"freq" 7.924465962305569e-02
"CH_SW_OUTN_B" (
3.037099191277594e-13
1.810494938496322e-16
3.038909686216090e-13
)
"CH_SW_OUTP_B" (
3.037099173908228e-13
1.810494936888799e-16
3.038909668845117e-13
)
"CH_SW_OUTN_A" (
3.037363485607431e-13
1.804876307952757e-16
3.039168361915384e-13
)
"CH_SW_OUTP_A" (
3.037363482420557e-13
1.804876306182331e-16
3.039168358726739e-13
)
"CH_SW_INN_B" (
4.249479117202033e-13
3.486944944684647e-15
4.284348566648880e-13
)
"CH_SW_INP_B" (
4.249479639304030e-13
3.486944986321004e-15
4.284349089167240e-13
)
"CH_SW_INN_A" (
4.241466325501484e-13
3.511146743517334e-15
4.276577792936658e-13
)
"CH_SW_INP_A" (
4.241466339426948e-13
3.511146742983042e-15
4.276577806856778e-13
)
"M15" (
1.589003672518402e-11
1.431063041520766e-12
1.732109976670479e-11
)
"M14" (
1.589003680018374e-11
1.431063041544129e-12
1.732109984172787e-11
)
"M13" (
6.103514542534343e-12
1.428782465302823e-12
7.532297007837166e-12
)
"M12" (
6.103514554969734e-12
1.428782465317060e-12
7.532297020286794e-12
)
"M11" (
1.000592322345149e-29
2.233273008028814e-33
1.000815649645952e-29
)
"M10" (
1.501687283606172e-11
5.373062689754280e-12
2.038993552581600e-11
)
"M9" (
1.501687277733396e-11
5.373062689629037e-12
2.038993546696300e-11
)
"M8" (
8.015641663345572e-11
5.565098794792170e-12
8.572151542824790e-11
)
"M7" (
8.015641644634384e-11
5.565098794661801e-12
8.572151524100564e-11
)
"M6" (
2.629984662588810e-30
4.490099560368774e-32
2.674885658192498e-30
)
"RLP_N" (
1.688205610296901e-14
1.688205610296901e-14
)
"RLP_P" (
1.688205610537001e-14
1.688205610537001e-14
)
"out" 1.627548034141938e-05
"freq" 9.976311574844400e-02
"CH_SW_OUTN_B" (
2.413549323759951e-13
1.810494076011897e-16
2.415359817835963e-13
)
"CH_SW_OUTP_B" (
2.413549314495955e-13
1.810494074668819e-16
2.415359808570624e-13
)
"CH_SW_OUTN_A" (
2.413759531051802e-13
1.804875450562659e-16
2.415564406502365e-13
)
"CH_SW_OUTP_A" (
2.413759529063506e-13
1.804875449371038e-16
2.415564404512877e-13
)
"CH_SW_INN_B" (
3.424991944321652e-13
3.486943294850014e-15
3.459861377270151e-13
)
"CH_SW_INP_B" (
3.424992186178495e-13
3.486943318436106e-15
3.459861619362856e-13
)
"CH_SW_INN_A" (
3.418698997709886e-13
3.511145070371287e-15
3.453810448413599e-13
)
"CH_SW_INP_A" (
3.418698992573438e-13
3.511145071389948e-15
3.453810443287337e-13
)
"M15" (
1.515110241241110e-11
1.431062356441770e-12
1.658216476885287e-11
)
"M14" (
1.515110245666727e-11
1.431062356466877e-12
1.658216481313415e-11
)
"M13" (
5.825708145160674e-12
1.428781781307131e-12
7.254489926467806e-12
)
"M12" (
5.825708152555927e-12
1.428781781322263e-12
7.254489933878191e-12
)
"M11" (
4.594965776232157e-30
4.710527556556568e-33
4.599676303788713e-30
)
"M10" (
1.435675939242034e-11
5.373060129264250e-12
1.972981952168459e-11
)
"M9" (
1.435675936292214e-11
5.373060129070730e-12
1.972981949199287e-11
)
"M8" (
7.663496353770382e-11
5.565096142751063e-12
8.220005968045489e-11
)
"M7" (
7.663496344507638e-11
5.565096142626256e-12
8.220005958770264e-11
)
"M6" (
2.010567423470098e-30
8.317051459321012e-32
2.093737938063308e-30
)
"RLP_N" (
1.688204808418373e-14
1.688204808418373e-14
)
"RLP_P" (
1.688204808946575e-14
1.688204808946575e-14
)
"out" 1.593473410675300e-05
"freq" 1.255943215754790e-01
"CH_SW_OUTN_B" (
1.918245761382910e-13
1.810492709917251e-16
1.920056254092827e-13
)
"CH_SW_OUTP_B" (
1.918245756814195e-13
1.810492708817447e-16
1.920056249523012e-13
)
"CH_SW_OUTN_A" (
1.918412998726267e-13
1.804874087000985e-16
1.920217872813268e-13
)
"CH_SW_OUTP_A" (
1.918412998434607e-13
1.804874086706687e-16
1.920217872521313e-13
)
"CH_SW_INN_B" (
2.770077978292682e-13
3.486940671484987e-15
2.804947385007532e-13
)
"CH_SW_INP_B" (
2.770078043749365e-13
3.486940673908408e-15
2.804947450488449e-13
)
"CH_SW_INN_A" (
2.765151217114507e-13
3.511142418737601e-15
2.800262641301883e-13
)
"CH_SW_INP_A" (
2.765151220031211e-13
3.511142419206182e-15
2.800262644223272e-13
)
"M15" (
1.456414172082743e-11
1.431061270551539e-12
1.599520299137897e-11
)
"M14" (
1.456414179476817e-11
1.431061270562076e-12
1.599520306533025e-11
)
"M13" (
5.605037022179463e-12
1.428780697134488e-12
7.033817719313951e-12
)
"M12" (
5.605037035611419e-12
1.428780697139728e-12
7.033817732751147e-12
)
"M11" (
1.727861269856392e-29
7.734270364017456e-33
1.728634696892794e-29
)
"M10" (
1.383240853713067e-11
5.373056070637985e-12
1.920546460776865e-11
)
"M9" (
1.383240847990385e-11
5.373056070444741e-12
1.920546455034859e-11
)
"M8" (
7.383775183944433e-11
5.565091938915322e-12
7.940284377835965e-11
)
"M7" (
7.383775183540771e-11
5.565091939095164e-12
7.940284377450288e-11
)
"M6" (
5.875586590926365e-28
1.348350552226808e-31
5.876934941478591e-28
)
"RLP_N" (
1.688203537662610e-14
1.688203537662610e-14
)
"RLP_P" (
1.688203538360232e-14
1.688203538360232e-14
)
"out" 1.565878408841221e-05
"freq" 1.581138830084190e-01
"CH_SW_OUTN_B" (
1.524811783550413e-13
1.810490544739946e-16
1.526622274095153e-13
)
"CH_SW_OUTP_B" (
1.524811775195516e-13
1.810490543143158e-16
1.526622265738659e-13
)
"CH_SW_OUTN_A" (
1.524944888999518e-13
1.804871930284314e-16
1.526749760929803e-13
)
"CH_SW_OUTP_A" (
1.524944887549894e-13
1.804871928738992e-16
1.526749759478633e-13
)
"CH_SW_INN_B" (
2.249860564171849e-13
3.486936481925663e-15
2.284729928991106e-13
)
"CH_SW_INP_B" (
2.249860780184731e-13
3.486936518006507e-15
2.284730145364796e-13
)
"CH_SW_INN_A" (
2.246019130476012e-13
3.511138216494464e-15
2.281130512640957e-13
)
"CH_SW_INP_A" (
2.246019129528728e-13
3.511138217421911e-15
2.281130511702947e-13
)
"M15" (
1.409789564559594e-11
1.431059549593626e-12
1.552895519518957e-11
)
"M14" (
1.409789571832615e-11
1.431059549607153e-12
1.552895526793330e-11
)
"M13" (
5.429749157165918e-12
1.428778978901503e-12
6.858528136067421e-12
)
"M12" (
5.429749170257391e-12
1.428778978907478e-12
6.858528149164869e-12
)
"M11" (
2.007666376384670e-29
1.517062527642396e-32
2.009183438912313e-29
)
"M10" (
1.341589541425033e-11
5.373049638478385e-12
1.878894505272872e-11
)
"M9" (
1.341589535899141e-11
5.373049638225486e-12
1.878894499721689e-11
)
"M8" (
7.161581342169784e-11
5.565085276984509e-12
7.718089869868236e-11
)
"M7" (
7.161581330125565e-11
5.565085276868403e-12
7.718089857812405e-11
)
"M6" (
1.453589442841058e-28
1.428630245162151e-31
1.455018073086220e-28
)
"RLP_N" (
1.688201523621373e-14
1.688201523621373e-14
)
"RLP_P" (
1.688201524671642e-14
1.688201524671642e-14
)
"out" 1.543607024541817e-05
"freq" 1.990535852767487e-01
"CH_SW_OUTN_B" (
1.212295591084514e-13
1.810487113255561e-16
1.214106078197770e-13
)
"CH_SW_OUTP_B" (
1.212295579970747e-13
1.810487110822694e-16
1.214106067081570e-13
)
"CH_SW_OUTN_A" (
1.212401583712829e-13
1.804868510396211e-16
1.214206452223225e-13
)
"CH_SW_OUTP_A" (
1.212401581596103e-13
1.804868507536650e-16
1.214206450103640e-13
)
"CH_SW_INN_B" (
1.836636367437433e-13
3.486929854342737e-15
1.871505665980860e-13
)
"CH_SW_INP_B" (
1.836636681464589e-13
3.486929919705674e-15
1.871505980661646e-13
)
"CH_SW_INN_A" (
1.833657028326930e-13
3.511131555802612e-15
1.868768343884957e-13
)
"CH_SW_INP_A" (
1.833657028049876e-13
3.511131557067628e-15
1.868768343620552e-13
)
"M15" (
1.372753283983050e-11
1.431056822070093e-12
1.515858966190059e-11
)
"M14" (
1.372753291522916e-11
1.431056822070831e-12
1.515858973729999e-11
)
"M13" (
5.290509042184518e-12
1.428776255693976e-12
6.719285297878494e-12
)
"M12" (
5.290509056448517e-12
1.428776255687063e-12
6.719285312135580e-12
)
"M11" (
2.721984476744187e-29
2.670274639014960e-32
2.724654751383202e-29
)
"M10" (
1.308503722351528e-11
5.373039444162999e-12
1.845807666767828e-11
)
"M9" (
1.308503716434239e-11
5.373039443895486e-12
1.845807660823788e-11
)
"M8" (
6.985081126002634e-11
5.565074718330836e-12
7.541588597835718e-11
)
"M7" (
6.985081112217164e-11
5.565074718177013e-12
7.541588584034865e-11
)
"M6" (
1.295247348540781e-28
3.325536487166970e-31
1.298572885027948e-28
)
"RLP_N" (
1.688198331678363e-14
1.688198331678363e-14
)
"RLP_P" (
1.688198333105441e-14
1.688198333105441e-14
)
"out" 1.525683965992498e-05
"freq" 2.505936168136362e-01
"CH_SW_OUTN_B" (
9.640545501555676e-14
1.810481673628333e-16
9.658650318291959e-14
)
"CH_SW_OUTP_B" (
9.640545472938019e-14
1.810481671895992e-16
9.658650289656980e-14
)
"CH_SW_OUTN_A" (
9.641390100687090e-14
1.804863087120918e-16
9.659438731558300e-14
)
"CH_SW_OUTP_A" (
9.641390100786150e-14
1.804863087076952e-16
9.659438731656919e-14
)
"CH_SW_INN_B" (
1.508399788019578e-13
3.486919405033689e-15
1.543268982069915e-13
)
"CH_SW_INP_B" (
1.508399808600821e-13
3.486919401573613e-15
1.543269002616557e-13
)
"CH_SW_INN_A" (
1.506105057679622e-13
3.511120998495895e-15
1.541216267664580e-13
)
"CH_SW_INP_A" (
1.506105058189554e-13
3.511121000892933e-15
1.541216268198484e-13
)
"M15" (
1.343332692491799e-11
1.431052499131268e-12
1.486437942404925e-11
)
"M14" (
1.343332701746496e-11
1.431052499187062e-12
1.486437951665202e-11
)
"M13" (
5.179900391904121e-12
1.428771939609860e-12
6.608672331513981e-12
)
"M12" (
5.179900410401055e-12
1.428771939629226e-12
6.608672350030281e-12
)
"M11" (
5.265447717363656e-29
4.999510410986659e-32
5.270447227774643e-29
)
"M10" (
1.282221144389665e-11
5.373023287153251e-12
1.819523473104991e-11
)
"M9" (
1.282221136834687e-11
5.373023286553935e-12
1.819523465490080e-11
)
"M8" (
6.844873590285732e-11
5.565057983524257e-12
7.401379388638158e-11
)
"M7" (
6.844873584343938e-11
5.565057983702214e-12
7.401379382714159e-11
)
"M6" (
1.561397441349908e-27
4.158697877340218e-31
1.561813311137642e-27
)
"RLP_N" (
1.688193272905717e-14
1.688193272905717e-14
)
"RLP_P" (
1.688193274762652e-14
1.688193274762652e-14
)
"out" 1.511294754242079e-05
"freq" 3.154786722400967e-01
"CH_SW_OUTN_B" (
7.668689282250281e-14
1.810473054014447e-16
7.686794012790425e-14
)
"CH_SW_OUTP_B" (
7.668689254755694e-14
1.810473051691155e-16
7.686793985272607e-14
)
"CH_SW_OUTN_A" (
7.669362809192608e-14
1.804854493839222e-16
7.687411354131001e-14
)
"CH_SW_OUTP_A" (
7.669362809787698e-14
1.804854493663890e-16
7.687411354724336e-14
)
"CH_SW_INN_B" (
1.247670570174440e-13
3.486902784763029e-15
1.282539598022070e-13
)
"CH_SW_INP_B" (
1.247670610730373e-13
3.486902792114717e-15
1.282539638651520e-13
)
"CH_SW_INN_A" (
1.245919775145765e-13
3.511104268371076e-15
1.281030817829475e-13
)
"CH_SW_INP_A" (
1.245919777057896e-13
3.511104270665169e-15
1.281030819764548e-13
)
"M15" (
1.319960531102909e-11
1.431045648019202e-12
1.463065095904829e-11
)
"M14" (
1.319960540369248e-11
1.431045648028821e-12
1.463065105172130e-11
)
"M13" (
5.092030934584752e-12
1.428765099333299e-12
6.520796033918050e-12
)
"M12" (
5.092030953105669e-12
1.428765099323892e-12
6.520796052429562e-12
)
"M11" (
6.688805376480878e-29
8.009441419284400e-32
6.696814817900162e-29
)
"M10" (
1.261341669673171e-11
5.372997680536510e-12
1.798641437726823e-11
)
"M9" (
1.261341662069868e-11
5.372997680026051e-12
1.798641430072473e-11
)
"M8" (
6.733489550398528e-11
5.565031461841533e-12
7.289992696582682e-11
)
"M7" (
6.733489539588403e-11
5.565031461860092e-12
7.289992685774413e-11
)
"M6" (
1.452992773673113e-27
4.434482149010492e-31
1.453436221888014e-27
)
"RLP_N" (
1.688185255390659e-14
1.688185255390659e-14
)
"RLP_P" (
1.688185257823998e-14
1.688185257823998e-14
)
"out" 1.499765109936583e-05
"freq" 3.971641173621409e-01
"CH_SW_OUTN_B" (
6.102378641554836e-14
1.810459391436987e-16
6.120483235469207e-14
)
"CH_SW_OUTP_B" (
6.102378597295665e-14
1.810459390218826e-16
6.120483191197853e-14
)
"CH_SW_OUTN_A" (
6.102916273009164e-14
1.804840874352953e-16
6.120964681752694e-14
)
"CH_SW_OUTP_A" (
6.102916263081077e-14
1.804840871704682e-16
6.120964671798125e-14
)
"CH_SW_INN_B" (
1.040563872709344e-13
3.486876420645867e-15
1.075432636915803e-13
)
"CH_SW_INP_B" (
1.040564027032944e-13
3.486876486878426e-15
1.075432791901728e-13
)
"CH_SW_INN_A" (
1.039245193383613e-13
3.511077752877751e-15
1.074355970912391e-13
)
"CH_SW_INP_A" (
1.039245196870880e-13
3.511077752179589e-15
1.074355974392676e-13
)
"M15" (
1.301391345212440e-11
1.431034789574592e-12
1.444494824169900e-11
)
"M14" (
1.301391346369842e-11
1.431034789593381e-12
1.444494825329180e-11
)
"M13" (
5.022218190102091e-12
1.428754258065420e-12
6.450972448167512e-12
)
"M12" (
5.022218192004770e-12
1.428754258083290e-12
6.450972450088060e-12
)
"M11" (
9.646669627393994e-31
1.162946486288068e-33
9.658299092256874e-31
)
"M10" (
1.244752603711164e-11
5.372957096170485e-12
1.782048313328212e-11
)
"M9" (
1.244752602765566e-11
5.372957096094462e-12
1.782048312375012e-11
)
"M8" (
6.644993204236801e-11
5.564989427329838e-12
7.201492146969785e-11
)
"M7" (
6.644993198808131e-11
5.564989427082687e-12
7.201492141516400e-11
)
"M6" (
2.916933577057781e-29
1.719059974870620e-31
2.934124176806487e-29
)
"RLP_N" (
1.688172550239475e-14
1.688172550239475e-14
)
"RLP_P" (
1.688172550252652e-14
1.688172550252652e-14
)
"out" 1.490540843725390e-05
"freq" 5.000000000000002e-01
"CH_SW_OUTN_B" (
4.858201729464633e-14
1.810437738598269e-16
4.876306106850616e-14
)
"CH_SW_OUTP_B" (
4.858201715490803e-14
1.810437737855935e-16
4.876306092869363e-14
)
"CH_SW_OUTN_A" (
4.858631443698167e-14
1.804819290975973e-16
4.876679636607927e-14
)
"CH_SW_OUTP_A" (
4.858631440351054e-14
1.804819289967993e-16
4.876679633250734e-14
)
"CH_SW_INN_B" (
8.760504122792028e-14
3.486834713765832e-15
9.109187594168611e-14
)
"CH_SW_INP_B" (
8.760504550736013e-14
3.486834735160720e-15
9.109188024252085e-14
)
"CH_SW_INN_A" (
8.750748635335710e-14
3.511035729252898e-15
9.101852208260999e-14
)
"CH_SW_INP_A" (
8.750748644253023e-14
3.511035729408435e-15
9.101852217193866e-14
)
"M15" (
1.286634976791723e-11
1.431017580707796e-12
1.429736734862503e-11
)
"M14" (
1.286634977231538e-11
1.431017580750460e-12
1.429736735306585e-11
)
"M13" (
4.966739429030923e-12
1.428737076446373e-12
6.395476505477297e-12
)
"M12" (
4.966739429377581e-12
1.428737076469894e-12
6.395476505847475e-12
)
"M11" (
1.280491789938650e-31
3.683755603911362e-34
1.284175545542561e-31
)
"M10" (
1.231569285210657e-11
5.372892776982174e-12
1.768858562908875e-11
)
"M9" (
1.231569284959440e-11
5.372892776831190e-12
1.768858562642559e-11
)
"M8" (
6.574665186985267e-11
5.564922809235585e-12
7.131157467908825e-11
)
"M7" (
6.574665185964194e-11
5.564922809128364e-12
7.131157466877030e-11
)
"M6" (
2.180098183264262e-30
2.301691998117350e-32
2.203115103245436e-30
)
"RLP_N" (
1.688152412507508e-14
1.688152412507508e-14
)
"RLP_P" (
1.688152412544489e-14
1.688152412544489e-14
)
"out" 1.483169079639181e-05
"freq" 6.294627058970840e-01
"CH_SW_OUTN_B" (
3.869901536693172e-14
1.810403423558578e-16
3.888005570928758e-14
)
"CH_SW_OUTP_B" (
3.869901534010412e-14
1.810403423364997e-16
3.888005568244062e-14
)
"CH_SW_OUTN_A" (
3.870245502272238e-14
1.804785079145115e-16
3.888293353063688e-14
)
"CH_SW_OUTP_A" (
3.870245503368612e-14
1.804785079081148e-16
3.888293354159423e-14
)
"CH_SW_INN_B" (
7.453686373732197e-14
3.486768571471831e-15
7.802363230879379e-14
)
"CH_SW_INP_B" (
7.453686642397901e-14
3.486768588919029e-15
7.802363501289804e-14
)
"CH_SW_INN_A" (
7.446656972308425e-14
3.510969128259610e-15
7.797753885134386e-14
)
"CH_SW_INP_A" (
7.446657027937510e-14
3.510969125855216e-15
7.797753940523032e-14
)
"M15" (
1.274903577777628e-11
1.430990307337452e-12
1.418002608511374e-11
)
"M14" (
1.274903579157514e-11
1.430990307302221e-12
1.418002609887736e-11
)
"M13" (
4.922632386867086e-12
1.428709846219338e-12
6.351342233086424e-12
)
"M12" (
4.922632389331947e-12
1.428709846210360e-12
6.351342235542307e-12
)
"M11" (
2.884458604306783e-30
1.154893353140653e-32
2.896007537838190e-30
)
"M10" (
1.221087685085096e-11
5.372790840644238e-12
1.758366769149519e-11
)
"M9" (
1.221087683891078e-11
5.372790840794151e-12
1.758366767970493e-11
)
"M8" (
6.518749776281441e-11
5.564817229784779e-12
7.075231499259919e-11
)
"M7" (
6.518749773374999e-11
5.564817229713770e-12
7.075231496346376e-11
)
"M6" (
4.040483516048291e-29
7.849515838541396e-32
4.048333031886833e-29
)
"RLP_N" (
1.688120497433758e-14
1.688120497433758e-14
)
"RLP_P" (
1.688120497350076e-14
1.688120497350076e-14
)
"out" 1.477281262027895e-05
"freq" 7.924465962305572e-01
"CH_SW_OUTN_B" (
3.084847304288630e-14
1.810349039308777e-16
3.102950794681718e-14
)
"CH_SW_OUTP_B" (
3.084847300472068e-14
1.810349039157470e-16
3.102950790863642e-14
)
"CH_SW_OUTN_A" (
3.085123178487040e-14
1.804730871587390e-16
3.103170487202914e-14
)
"CH_SW_OUTP_A" (
3.085123177797800e-14
1.804730871106952e-16
3.103170486508870e-14
)
"CH_SW_INN_B" (
6.415586600451639e-14
3.486663761345724e-15
6.764252976586211e-14
)
"CH_SW_INP_B" (
6.415586785654771e-14
3.486663776907203e-15
6.764253163345491e-14
)
"CH_SW_INN_A" (
6.410722441231530e-14
3.510863579057132e-15
6.761808799137243e-14
)
"CH_SW_INP_A" (
6.410722457495243e-14
3.510863578205016e-15
6.761808815315746e-14
)
"M15" (
1.265569210639620e-11
1.430947084032717e-12
1.408663919042891e-11
)
"M14" (
1.265569211083944e-11
1.430947084028714e-12
1.408663919486815e-11
)
"M13" (
4.887535818262652e-12
1.428666691331623e-12
6.316202509594275e-12
)
"M12" (
4.887535818775429e-12
1.428666691339070e-12
6.316202510114498e-12
)
"M11" (
3.546291545966215e-31
1.388752066854714e-33
3.560179066634762e-31
)
"M10" (
1.212746503232543e-11
5.372629290775906e-12
1.750009432310134e-11
)
"M9" (
1.212746502916573e-11
5.372629290792690e-12
1.750009431995842e-11
)
"M8" (
6.474252638185447e-11
5.564649905978603e-12
7.030717628783307e-11
)
"M7" (
6.474252637360704e-11
5.564649905913536e-12
7.030717627952059e-11
)
"M6" (
1.678641500727255e-30
6.506582679052582e-33
1.685148083406308e-30
)
"RLP_N" (
1.688069917815733e-14
1.688069917815733e-14
)
"RLP_P" (
1.688069917811860e-14
1.688069917811860e-14
)
"out" 1.472578112281016e-05
"freq" 9.976311574844405e-01
"CH_SW_OUTN_B" (
2.461231791195573e-14
1.810262853299871e-16
2.479334419728572e-14
)
"CH_SW_OUTP_B" (
2.461231792088969e-14
1.810262852934005e-16
2.479334420618309e-14
)
"CH_SW_OUTN_A" (
2.461453574334596e-14
1.804644960521708e-16
2.479500023939813e-14
)
"CH_SW_OUTP_A" (
2.461453574963495e-14
1.804644961018683e-16
2.479500024573682e-14
)
"CH_SW_INN_B" (
5.590911453699894e-14
3.486497669602323e-15
5.939561220660126e-14
)
"CH_SW_INP_B" (
5.590911329997975e-14
3.486497652166717e-15
5.939561095214647e-14
)
"CH_SW_INN_A" (
5.587767093640210e-14
3.510696306827663e-15
5.938836724322977e-14
)
"CH_SW_INP_A" (
5.587767097756399e-14
3.510696306989503e-15
5.938836728455349e-14
)
"M15" (
1.258129713647400e-11
1.430878585007435e-12
1.401217572148143e-11
)
"M14" (
1.258129713907370e-11
1.430878585018525e-12
1.401217572409223e-11
)
"M13" (
4.859561063256742e-12
1.428598300731212e-12
6.288159363987954e-12
)
"M12" (
4.859561063521911e-12
1.428598300730731e-12
6.288159364252642e-12
)
"M11" (
1.164720947864198e-31
5.573154761358349e-34
1.170294102625556e-31
)
"M10" (
1.206096605253183e-11
5.372373271193647e-12
1.743333932372547e-11
)
"M9" (
1.206096605092622e-11
5.372373271100288e-12
1.743333932202650e-11
)
"M8" (
6.438777781744623e-11
5.564384735957081e-12
6.995216255340330e-11
)
"M7" (
6.438777782619676e-11
5.564384736143264e-12
6.995216256234002e-11
)
"M6" (
1.994448248476130e-29
1.028249386399057e-31
2.004730742340121e-29
)
"RLP_N" (
1.687989760815264e-14
1.687989760815264e-14
)
"RLP_P" (
1.687989760854708e-14
1.687989760854708e-14
)
"out" 1.468816456801534e-05
"freq" 1.255943215754791e+00
"CH_SW_OUTN_B" (
1.965844831306349e-14
1.810126275320118e-16
1.983946094059550e-14
)
"CH_SW_OUTP_B" (
1.965844816615080e-14
1.810126273871785e-16
1.983946079353798e-14
)
"CH_SW_OUTN_A" (
1.966023634782076e-14
1.804508815885791e-16
1.984068722940934e-14
)
"CH_SW_OUTP_A" (
1.966023631585935e-14
1.804508813218382e-16
1.984068719718119e-14
)
"CH_SW_INN_B" (
4.935726425910699e-14
3.486234394872242e-15
5.284349865397923e-14
)
"CH_SW_INP_B" (
4.935726975609284e-14
3.486234459206878e-15
5.284350421529972e-14
)
"CH_SW_INN_A" (
4.933948558753684e-14
3.510431231181883e-15
5.284991681871873e-14
)
"CH_SW_INP_A" (
4.933948575514725e-14
3.510431230082206e-15
5.284991698522945e-14
)
"M15" (
1.252180873721402e-11
1.430770034802839e-12
1.395257877201686e-11
)
"M14" (
1.252180874103091e-11
1.430770034813767e-12
1.395257877584468e-11
)
"M13" (
4.837187259770361e-12
1.428489922319229e-12
6.265677182089591e-12
)
"M12" (
4.837187260492618e-12
1.428489922333561e-12
6.265677182826180e-12
)
"M11" (
4.404984964157157e-31
2.160653199887463e-33
4.426591496156031e-31
)
"M10" (
1.200776038827670e-11
5.371967557540311e-12
1.737972794581701e-11
)
"M9" (
1.200776038474204e-11
5.371967557498521e-12
1.737972794224056e-11
)
"M8" (
6.410394291262859e-11
5.563964522077635e-12
6.966790743470623e-11
)
"M7" (
6.410394290087241e-11
5.563964521988265e-12
6.966790742286067e-11
)
"M6" (
3.867876266093576e-30
6.549875258938324e-32
3.933375018682959e-30
)
"RLP_N" (
1.687862736259131e-14
1.687862736259131e-14
)
"RLP_P" (
1.687862736245216e-14
1.687862736245216e-14
)
"out" 1.465797690835815e-05
"freq" 1.581138830084191e+00
"CH_SW_OUTN_B" (
1.572304640209224e-14
1.809909855033523e-16
1.590403738759559e-14
)
"CH_SW_OUTP_B" (
1.572304632678581e-14
1.809909853578108e-16
1.590403731214362e-14
)
"CH_SW_OUTN_A" (
1.572449318780425e-14
1.804293088415226e-16
1.590492249664577e-14
)
"CH_SW_OUTP_A" (
1.572449316712331e-14
1.804293086784670e-16
1.590492247580178e-14
)
"CH_SW_INN_B" (
4.415114762608595e-14
3.485817309142172e-15
4.763696493522812e-14
)
"CH_SW_INP_B" (
4.415114930619642e-14
3.485817330523627e-15
4.763696663672005e-14
)
"CH_SW_INN_A" (
4.414421694640896e-14
3.510011198060186e-15
4.765422814446914e-14
)
"CH_SW_INP_A" (
4.414421682695740e-14
3.510011199588076e-15
4.765422802654547e-14
)
"M15" (
1.247393170996834e-11
1.430598027904816e-12
1.390452973787316e-11
)
"M14" (
1.247393170823483e-11
1.430598027969656e-12
1.390452973620449e-11
)
"M13" (
4.819173658491044e-12
1.428318187674547e-12
6.247491846165591e-12
)
"M12" (
4.819173658055108e-12
1.428318187710275e-12
6.247491845765383e-12
)
"M11" (
2.788549137661226e-31
6.783386792799061e-33
2.856383005589216e-31
)
"M10" (
1.196489077127138e-11
5.371324670502907e-12
1.733621544177428e-11
)
"M9" (
1.196489077324367e-11
5.371324670244653e-12
1.733621544348832e-11
)
"M8" (
6.387524511390642e-11
5.563298657832922e-12
6.943854377173934e-11
)
"M7" (
6.387524511672249e-11
5.563298657783397e-12
6.943854377450589e-11
)
"M6" (
1.894750275069966e-29
1.585060681908890e-31
1.910600881889055e-29
)
"RLP_N" (
1.687661455115950e-14
1.687661455115950e-14
)
"RLP_P" (
1.687661455245305e-14
1.687661455245305e-14
)
"out" 1.463357492665532e-05
"freq" 1.990535852767488e+00
"CH_SW_OUTN_B" (
1.259652848652422e-14
1.809566958921491e-16
1.277748518241637e-14
)
"CH_SW_OUTP_B" (
1.259652842282049e-14
1.809566957827419e-16
1.277748511860323e-14
)
"CH_SW_OUTN_A" (
1.259770406046622e-14
1.803951277295207e-16
1.277809918819574e-14
)
"CH_SW_OUTP_A" (
1.259770404564519e-14
1.803951275457494e-16
1.277809917319094e-14
)
"CH_SW_INN_B" (
4.001308602279327e-14
3.485156417944755e-15
4.349824244073803e-14
)
"CH_SW_INP_B" (
4.001308834749131e-14
3.485156457194095e-15
4.349824480468542e-14
)
"CH_SW_INN_A" (
4.001477233483920e-14
3.509345693976828e-15
4.352411802881603e-14
)
"CH_SW_INP_A" (
4.001477237998227e-14
3.509345693523591e-15
4.352411807350586e-14
)
"M15" (
1.243491498499605e-11
1.430325499792307e-12
1.386524048478836e-11
)
"M14" (
1.243491498570513e-11
1.430325499780641e-12
1.386524048548577e-11
)
"M13" (
4.804482969399076e-12
1.428046090884332e-12
6.232529060283409e-12
)
"M12" (
4.804482969435579e-12
1.428046090875911e-12
6.232529060311491e-12
)
"M11" (
2.477802523872718e-32
3.162871577868376e-34
2.509431239651402e-32
)
"M10" (
1.192987813002986e-11
5.370306078207810e-12
1.730018420823767e-11
)
"M9" (
1.192987812960305e-11
5.370306078245995e-12
1.730018420784904e-11
)
"M8" (
6.368845847947977e-11
5.562243660694617e-12
6.925070214017439e-11
)
"M7" (
6.368845847808831e-11
5.562243660735775e-12
6.925070213882408e-11
)
"M6" (
1.782311352741914e-30
1.916125460252959e-32
1.801472607344444e-30
)
"RLP_N" (
1.687342544875047e-14
1.687342544875047e-14
)
"RLP_P" (
1.687342544860354e-14
1.687342544860354e-14
)
"out" 1.461356269117363e-05
"freq" 2.505936168136364e+00
"CH_SW_OUTN_B" (
1.011238126683778e-14
1.809023762806942e-16
1.029328364311847e-14
)
"CH_SW_OUTP_B" (
1.011238120535785e-14
1.809023761388489e-16
1.029328358149670e-14
)
"CH_SW_OUTN_A" (
1.011334147520037e-14
1.803409814664844e-16
1.029368245666685e-14
)
"CH_SW_OUTP_A" (
1.011334145855441e-14
1.803409812285012e-16
1.029368243978291e-14
)
"CH_SW_INN_B" (
3.672204370620064e-14
3.484109504053917e-15
4.020615321025455e-14
)
"CH_SW_INP_B" (
3.672204595997066e-14
3.484109551681401e-15
4.020615551165206e-14
)
"CH_SW_INN_A" (
3.673056955512473e-14
3.508291443622611e-15
4.023886099874734e-14
)
"CH_SW_INP_A" (
3.673056953302930e-14
3.508291444362798e-15
4.023886097739210e-14
)
"M15" (
1.240236204145245e-11
1.429893779999582e-12
1.383225582145203e-11
)
"M14" (
1.240236204147666e-11
1.429893780026725e-12
1.383225582150338e-11
)
"M13" (