HEADER
"PSFversion" "1.00"
"simulator" "spectre"
"version" "24.1.0.078"
"date" "10:32:02 PM, Sun Jun 21, 2026"
"design" "// AFE core (non-chopper) DC/AC/noise — generated by core.cadence_netlist"
"analysis type" "noise"
"analysis name" "noiseAnal"
"analysis description" "Noise Analysis `noiseAnal': freq = (10 mHz -> 10 kHz)"
"xVecSorted" "ascending"
"tolerance.relative" 1.000000000000000e-04
"operating point producer" "dcOp"
"output" "pair of nodes"
"ground" "0"
"positive output signal" "VOP"
"negative output signal" "VON"
TYPE
"sweep" FLOAT DOUBLE PROP(
"key" "sweep"
)
"V/sqrt(Hz)" FLOAT DOUBLE PROP(
"units" "V/sqrt(Hz)"
"key" "noise"
)
"V^2/Hz" FLOAT DOUBLE PROP(
"units" "V^2/Hz"
"key" "noise"
)
"pmos_TFT_behavioral" STRUCT(
"flicker" FLOAT DOUBLE PROP(
"units" "V^2/Hz"
)
"thermal" FLOAT DOUBLE PROP(
"units" "V^2/Hz"
)
"total" FLOAT DOUBLE PROP(
"units" "V^2/Hz"
)
) PROP(
"key" "inst"
"master" "pmos_TFT"
)
SWEEP
"freq" "sweep" PROP(
"sweep_direction" 0
"units" "Hz"
"plot" 0
"grid" 3
)
TRACE
"M15" "pmos_TFT_behavioral"
"M14" "pmos_TFT_behavioral"
"M13" "pmos_TFT_behavioral"
"M12" "pmos_TFT_behavioral"
"M11" "pmos_TFT_behavioral"
"M10" "pmos_TFT_behavioral"
"M9" "pmos_TFT_behavioral"
"M8" "pmos_TFT_behavioral"
"M7" "pmos_TFT_behavioral"
"M6" "pmos_TFT_behavioral"
"out" "V/sqrt(Hz)"
VALUE
"freq" 1.000000000000000e-02
"M15" (
2.183532345873407e-07
1.674285874072218e-12
2.183549088732148e-07
)
"M14" (
2.183532342222599e-07
1.674285871272855e-12
2.183549085081312e-07
)
"M13" (
1.991987609224965e-07
1.639795623953783e-12
1.992004007181205e-07
)
"M12" (
1.991987607418967e-07
1.639795622467090e-12
1.992004005375191e-07
)
"M11" (
1.758319045504394e-26
1.185543108647142e-31
1.758330900935480e-26
)
"M10" (
2.367757229144986e-07
1.462410524942013e-11
2.367903470197480e-07
)
"M9" (
2.367757228289073e-07
1.462410524413371e-11
2.367903469341514e-07
)
"M8" (
1.178703367178496e-06
1.507106799918005e-11
1.178718438246495e-06
)
"M7" (
1.178703367101770e-06
1.507106799819902e-11
1.178718438169768e-06
)
"M6" (
3.279279783422492e-26
1.602452169043523e-31
3.279295807944182e-26
)
"out" 1.914713604956926e-03
"freq" 1.122018454301963e-02
"M15" (
1.946075251516156e-07
1.674285873909702e-12
1.946091994374895e-07
)
"M14" (
1.946075248262323e-07
1.674285871110300e-12
1.946091991121034e-07
)
"M13" (
1.775360825300212e-07
1.639795623794606e-12
1.775377223256449e-07
)
"M12" (
1.775360823690590e-07
1.639795622307892e-12
1.775377221646813e-07
)
"M11" (
1.567149001302876e-26
1.185577532108210e-31
1.567160857078197e-26
)
"M10" (
2.110265851579506e-07
1.462410524824951e-11
2.110412092631988e-07
)
"M9" (
2.110265850816723e-07
1.462410524296344e-11
2.110412091869153e-07
)
"M8" (
1.050520481695158e-06
1.507106799797380e-11
1.050535552763156e-06
)
"M7" (
1.050520481626781e-06
1.507106799699284e-11
1.050535552694778e-06
)
"M6" (
2.922284667152911e-26
1.602245730731234e-31
2.922300689610218e-26
)
"out" 1.807608189555460e-03
"freq" 1.258925411794167e-02
"M15" (
1.734441393380664e-07
1.674285873705079e-12
1.734458136239402e-07
)
"M14" (
1.734441390480702e-07
1.674285870905696e-12
1.734458133339411e-07
)
"M13" (
1.582292000881339e-07
1.639795623594203e-12
1.582308398837575e-07
)
"M12" (
1.582291999446772e-07
1.639795622107499e-12
1.582308397402993e-07
)
"M11" (
1.396703337232798e-26
1.185560826856953e-31
1.396715192841066e-26
)
"M10" (
1.880776419742357e-07
1.462410524677615e-11
1.880922660794824e-07
)
"M9" (
1.880776419062504e-07
1.462410524148991e-11
1.880922660114919e-07
)
"M8" (
9.362773647451911e-07
1.507106799645534e-11
9.362924358131875e-07
)
"M7" (
9.362773646842477e-07
1.507106799547435e-11
9.362924357522432e-07
)
"M6" (
2.604651441190048e-26
1.602345692400390e-31
2.604667464646972e-26
)
"out" 1.706494274891757e-03
"freq" 1.412537544622754e-02
"M15" (
1.545822518750680e-07
1.674285873447476e-12
1.545839261609414e-07
)
"M14" (
1.545822516166095e-07
1.674285870648103e-12
1.545839259024802e-07
)
"M13" (
1.410219229970042e-07
1.639795623341908e-12
1.410235627926275e-07
)
"M12" (
1.410219228691488e-07
1.639795621855209e-12
1.410235626647706e-07
)
"M11" (
1.244804123993015e-26
1.185552221336136e-31
1.244815979515228e-26
)
"M10" (
1.676243748302584e-07
1.462410524492119e-11
1.676389989355033e-07
)
"M9" (
1.676243747696655e-07
1.462410523963487e-11
1.676389988749051e-07
)
"M8" (
8.344580795766959e-07
1.507106799454365e-11
8.344731506446905e-07
)
"M7" (
8.344580795223791e-07
1.507106799356264e-11
8.344731505903727e-07
)
"M6" (
2.321470454849762e-26
1.602395676446291e-31
2.321486478806527e-26
)
"out" 1.611036708634006e-03
"freq" 1.584893192461113e-02
"M15" (
1.377715769757966e-07
1.674285873123186e-12
1.377732512616697e-07
)
"M14" (
1.377715767454462e-07
1.674285870323824e-12
1.377732510313165e-07
)
"M13" (
1.256859211441611e-07
1.639795623024301e-12
1.256875609397841e-07
)
"M12" (
1.256859210302103e-07
1.639795621537609e-12
1.256875608258319e-07
)
"M11" (
1.109424316685095e-26
1.185543109699397e-31
1.109436172116192e-26
)
"M10" (
1.493953812976952e-07
1.462410524258604e-11
1.494100054029378e-07
)
"M9" (
1.493953812436907e-07
1.462410523729962e-11
1.494100053489281e-07
)
"M8" (
7.437115461372578e-07
1.507106799213709e-11
7.437266172052499e-07
)
"M7" (
7.437115460888467e-07
1.507106799115606e-11
7.437266171568379e-07
)
"M6" (
2.069088486013547e-26
1.602454354652642e-31
2.069104510557094e-26
)
"out" 1.520919086990677e-03
"freq" 1.778279410038922e-02
"M15" (
1.227890471979026e-07
1.674285872714919e-12
1.227907214837753e-07
)
"M14" (
1.227890469926023e-07
1.674285869915552e-12
1.227907212784722e-07
)
"M13" (
1.120176951026224e-07
1.639795622624443e-12
1.120193348982451e-07
)
"M12" (
1.120176950010635e-07
1.639795621137748e-12
1.120193347966847e-07
)
"M11" (
9.887788410322800e-27
1.185547159923900e-31
9.887906965038793e-27
)
"M10" (
1.331487737076512e-07
1.462410523964601e-11
1.331633978128908e-07
)
"M9" (
1.331487736595200e-07
1.462410523435962e-11
1.331633977647544e-07
)
"M8" (
6.628336130624735e-07
1.507106798910722e-11
6.628486841304627e-07
)
"M7" (
6.628336130193275e-07
1.507106798812619e-11
6.628486840873156e-07
)
"M6" (
1.844047050947832e-26
1.602428282581430e-31
1.844063075230658e-26
)
"out" 1.435842705957933e-03
"freq" 1.995262314968878e-02
"M15" (
1.094358534740858e-07
1.674285872200960e-12
1.094375277599580e-07
)
"M14" (
1.094358532911114e-07
1.674285869401589e-12
1.094375275769807e-07
)
"M13" (
9.983587581714530e-08
1.639795622121072e-12
9.983751561276742e-08
)
"M12" (
9.983587572663065e-08
1.639795620634374e-12
9.983751552225129e-08
)
"M11" (
8.812527041238176e-27
1.185550704049758e-31
8.812645596308581e-27
)
"M10" (
1.186689694482689e-07
1.462410523594490e-11
1.186835935535049e-07
)
"M9" (
1.186689694053723e-07
1.462410523065856e-11
1.186835935106029e-07
)
"M8" (
5.907510793190017e-07
1.507106798529301e-11
5.907661503869870e-07
)
"M7" (
5.907510792805482e-07
1.507106798431199e-11
5.907661503485325e-07
)
"M6" (
1.643486382910996e-26
1.602406558303187e-31
1.643502406976580e-26
)
"out" 1.355525571234857e-03
"freq" 2.238721138568338e-02
"M15" (
9.753480703655299e-08
1.674285871553920e-12
9.753648132242454e-08
)
"M14" (
9.753480687347802e-08
1.674285868754569e-12
9.753648115934678e-08
)
"M13" (
8.897881794704854e-08
1.639795621487364e-12
8.898045774267003e-08
)
"M12" (
8.897881786637789e-08
1.639795620000677e-12
8.898045766199788e-08
)
"M11" (
7.854058972802082e-27
1.185533493259075e-31
7.854177526151407e-27
)
"M10" (
1.057638303144382e-07
1.462410523128568e-11
1.057784544196695e-07
)
"M9" (
1.057638302762052e-07
1.462410522599915e-11
1.057784543814312e-07
)
"M8" (
5.265074534788354e-07
1.507106798049130e-11
5.265225245468159e-07
)
"M7" (
5.265074534445626e-07
1.507106797951026e-11
5.265225245125421e-07
)
"M6" (
1.464856124848610e-26
1.602513050305395e-31
1.464872149979113e-26
)
"out" 1.279701463524559e-03
"freq" 2.511886431509578e-02
"M15" (
8.692798822972945e-08
1.674285870739345e-12
8.692966251560019e-08
)
"M14" (
8.692798808438763e-08
1.674285867939973e-12
8.692966237025557e-08
)
"M13" (
7.930245493075629e-08
1.639795620689565e-12
7.930409472637699e-08
)
"M12" (
7.930245485885792e-08
1.639795619202867e-12
7.930409465447712e-08
)
"M11" (
7.000042046667957e-27
1.185551211893022e-31
7.000160601789146e-27
)
"M10" (
9.426211295055092e-08
1.462410522541966e-11
9.427673705577634e-08
)
"M9" (
9.426211291647694e-08
1.462410522013332e-11
9.427673702169707e-08
)
"M8" (
4.692502616591985e-07
1.507106797444608e-11
4.692653327271729e-07
)
"M7" (
4.692502616286537e-07
1.507106797346506e-11
4.692653326966271e-07
)
"M6" (
1.305465882588887e-26
1.602404404431020e-31
1.305481906632932e-26
)
"out" 1.208119056123188e-03
"freq" 2.818382931264451e-02
"M15" (
7.747465101237202e-08
1.674285869713838e-12
7.747632529824173e-08
)
"M14" (
7.747465088283563e-08
1.674285866914458e-12
7.747632516870255e-08
)
"M13" (
7.067838731005472e-08
1.639795619685181e-12
7.068002710567441e-08
)
"M12" (
7.067838724597509e-08
1.639795618198480e-12
7.068002704159329e-08
)
"M11" (
6.238831342059221e-27
1.185558300159518e-31
6.238949897889237e-27
)
"M10" (
8.401119655522366e-08
1.462410521803478e-11
8.402582066044170e-08
)
"M9" (
8.401119652485561e-08
1.462410521274852e-11
8.402582063006835e-08
)
"M8" (
4.182197357120745e-07
1.507106796683553e-11
4.182348067800413e-07
)
"M7" (
4.182197356848520e-07
1.507106796585453e-11
4.182348067528179e-07
)
"M6" (
1.163466145101262e-26
1.602360956312935e-31
1.163482168710825e-26
)
"out" 1.140541081871925e-03
"freq" 3.162277660168376e-02
"M15" (
6.904935534311812e-08
1.674285868422820e-12
6.905102962898655e-08
)
"M14" (
6.904935522766929e-08
1.674285865623454e-12
6.905102951353491e-08
)
"M13" (
6.299217894729425e-08
1.639795618420762e-12
6.299381874291267e-08
)
"M12" (
6.299217889018348e-08
1.639795616934067e-12
6.299381868580041e-08
)
"M11" (
5.560304937519804e-27
1.185545646017612e-31
5.560423492084406e-27
)
"M10" (
7.487505769598304e-08
1.462410520873815e-11
7.488968180119177e-08
)
"M9" (
7.487505766891683e-08
1.462410520345175e-11
7.488968177412028e-08
)
"M8" (
3.727387315624799e-07
1.507106795725470e-11
3.727538026304371e-07
)
"M7" (
3.727387315382172e-07
1.507106795627367e-11
3.727538026061734e-07
)
"M6" (
1.036989524045752e-26
1.602437031485217e-31
1.037005548416067e-26
)
"out" 1.076743546710709e-03
"freq" 3.548133892335751e-02
"M15" (
6.154030266734517e-08
1.674285866797535e-12
6.154197695321196e-08
)
"M14" (
6.154030256445099e-08
1.674285863998161e-12
6.154197685031499e-08
)
"M13" (
5.614183852736597e-08
1.639795616828956e-12
5.614347832298280e-08
)
"M12" (
5.614183847646580e-08
1.639795615342257e-12
5.614347827208115e-08
)
"M11" (
4.955656623813568e-27
1.185552734932240e-31
4.955775179087061e-27
)
"M10" (
6.673246536095617e-08
1.462410519703425e-11
6.674708946615320e-08
)
"M9" (
6.673246533683370e-08
1.462410519174792e-11
6.674708944202544e-08
)
"M8" (
3.322037439179753e-07
1.507106794519311e-11
3.322188149859205e-07
)
"M7" (
3.322037438963514e-07
1.507106794421210e-11
3.322188149642956e-07
)
"M6" (
9.241940847469621e-27
1.602395763906211e-31
9.242101087046012e-27
)
"out" 1.016514987226940e-03
"freq" 3.981071705534968e-02
"M15" (
5.484785241827721e-08
1.674285864751413e-12
5.484952670414196e-08
)
"M14" (
5.484785232657301e-08
1.674285861952049e-12
5.484952661243496e-08
)
"M13" (
5.003646619491937e-08
1.639795614824986e-12
5.003810599053420e-08
)
"M12" (
5.003646614955470e-08
1.639795613338292e-12
5.003810594516804e-08
)
"M11" (
4.416703448893846e-27
1.185544637645145e-31
4.416822003357610e-27
)
"M10" (
5.947537229700653e-08
1.462410518229999e-11
5.948999640218882e-08
)
"M9" (
5.947537227550702e-08
1.462410517701358e-11
5.948999638068403e-08
)
"M8" (
2.960768981201305e-07
1.507106793000850e-11
2.960919691880605e-07
)
"M7" (
2.960768981008579e-07
1.507106792902747e-11
2.960919691687869e-07
)
"M6" (
8.237134340688657e-27
1.602443599132448e-31
8.237294585048570e-27
)
"out" 9.596557697382949e-04
"freq" 4.466835921509626e-02
"M15" (
4.888319984720294e-08
1.674285862175488e-12
4.888487413306511e-08
)
"M14" (
4.888319976547109e-08
1.674285859376111e-12
4.888487405133047e-08
)
"M13" (
4.459504736850881e-08
1.639795612302122e-12
4.459668716412111e-08
)
"M12" (
4.459504732807732e-08
1.639795610815421e-12
4.459668712368814e-08
)
"M11" (
3.936426399035042e-27
1.185555271173923e-31
3.936544954562160e-27
)
"M10" (
5.300748128832465e-08
1.462410516375036e-11
5.302210539348840e-08
)
"M9" (
5.300748126916360e-08
1.462410515846406e-11
5.302210537432206e-08
)
"M8" (
2.638788128745851e-07
1.507106791089197e-11
2.638938839424960e-07
)
"M7" (
2.638788128574087e-07
1.507106790991096e-11
2.638938839253186e-07
)
"M6" (
7.341055192057237e-27
1.602378440027155e-31
7.341215429901240e-27
)
"out" 9.059774285862920e-04
"freq" 5.011872336272716e-02
"M15" (
4.356719763841413e-08
1.674285858932580e-12
4.356887192427306e-08
)
"M14" (
4.356719756557094e-08
1.674285856133219e-12
4.356887185142707e-08
)
"M13" (
3.974537772631996e-08
1.639795609126021e-12
3.974701752192908e-08
)
"M12" (
3.974537769028557e-08
1.639795607639330e-12
3.974701748589321e-08
)
"M11" (
3.508307778861364e-27
1.185543125433335e-31
3.508426333173907e-27
)
"M10" (
4.724296735088666e-08
1.462410514039794e-11
4.725759145602706e-08
)
"M9" (
4.724296733380895e-08
1.462410513511152e-11
4.725759143894406e-08
)
"M8" (
2.351822391525429e-07
1.507106788682577e-11
2.351973102204298e-07
)
"M7" (
2.351822391372341e-07
1.507106788584474e-11
2.351973102051200e-07
)
"M6" (
6.543024185100173e-27
1.602452368154892e-31
6.543184430336988e-27
)
"out" 8.553020414473726e-04
"freq" 5.623413251903484e-02
"M15" (
3.882930567241366e-08
1.674285854850008e-12
3.883097995826851e-08
)
"M14" (
3.882930560749242e-08
1.674285852050660e-12
3.883097989334448e-08
)
"M13" (
3.542310509868724e-08
1.639795605127554e-12
3.542474489429237e-08
)
"M12" (
3.542310506657170e-08
1.639795603640869e-12
3.542474486217534e-08
)
"M11" (
3.126749233182575e-27
1.185530474467604e-31
3.126867786230022e-27
)
"M10" (
4.210533888705500e-08
1.462410511099901e-11
4.211996299216600e-08
)
"M9" (
4.210533887183409e-08
1.462410510571246e-11
4.211996297693981e-08
)
"M8" (
2.096063908557249e-07
1.507106785652825e-11
2.096214619235815e-07
)
"M7" (
2.096063908420805e-07
1.507106785554720e-11
2.096214619099361e-07
)
"M6" (
5.831769246289656e-27
1.602532828567497e-31
5.831929499572512e-27
)
"out" 8.074616395908254e-04
"freq" 6.309573444801923e-02
"M15" (
3.460665500138714e-08
1.674285849710383e-12
3.460832928723685e-08
)
"M14" (
3.460665494352551e-08
1.674285846911009e-12
3.460832922937242e-08
)
"M13" (
3.157087555390072e-08
1.639795600093798e-12
3.157251534950081e-08
)
"M12" (
3.157087552527746e-08
1.639795598607100e-12
3.157251532087607e-08
)
"M11" (
2.786769367627370e-27
1.185552247655770e-31
2.786887922852136e-27
)
"M10" (
3.752642268855387e-08
1.462410507398781e-11
3.754104679362786e-08
)
"M9" (
3.752642267498879e-08
1.462410506870148e-11
3.754104678005750e-08
)
"M8" (
1.868118920162045e-07
1.507106781838596e-11
1.868269630840229e-07
)
"M7" (
1.868118920040444e-07
1.507106781740494e-11
1.868269630718618e-07
)
"M6" (
5.197133040381800e-27
1.602398161702456e-31
5.197293280197971e-27
)
"out" 7.622976511288463e-04
"freq" 7.079457843841368e-02
"M15" (
3.084321361646041e-08
1.674285843239933e-12
3.084488790230364e-08
)
"M14" (
3.084321356489180e-08
1.674285840440595e-12
3.084488785073224e-08
)
"M13" (
2.813757234637735e-08
1.639795593756648e-12
2.813921214197111e-08
)
"M12" (
2.813757232086716e-08
1.639795592269968e-12
2.813921211645943e-08
)
"M11" (
2.483649318039117e-27
1.185522894078342e-31
2.483767870328524e-27
)
"M10" (
3.344545931941589e-08
1.462410502739367e-11
3.346008342444329e-08
)
"M9" (
3.344545930732531e-08
1.462410502210704e-11
3.346008341234742e-08
)
"M8" (
1.664962734835038e-07
1.507106777036761e-11
1.665113445512742e-07
)
"M7" (
1.664962734726656e-07
1.507106776938654e-11
1.665113445404350e-07
)
"M6" (
4.632465050462965e-27
1.602576445176945e-31
4.632625308107483e-27
)
"out" 7.196603754132684e-04
"freq" 7.943282347242801e-02
"M15" (
2.748904293698982e-08
1.674285835094177e-12
2.749071722282492e-08
)
"M14" (
2.748904289102827e-08
1.674285832294778e-12
2.749071717686057e-08
)
"M13" (
2.507763762850671e-08
1.639795585778681e-12
2.507927742409249e-08
)
"M12" (
2.507763760577024e-08
1.639795584291969e-12
2.507927740135454e-08
)
"M11" (
2.213650266272446e-27
1.185574031549040e-31
2.213768823675600e-27
)
"M10" (
2.980829687517895e-08
1.462410496873470e-11
2.982292098014768e-08
)
"M9" (
2.980829686440429e-08
1.462410496344860e-11
2.982292096936773e-08
)
"M8" (
1.483899593427384e-07
1.507106770991605e-11
1.484050304104484e-07
)
"M7" (
1.483899593330799e-07
1.507106770893509e-11
1.484050304007888e-07
)
"M6" (
4.127894106064933e-27
1.602267971167805e-31
4.128054332862050e-27
)
"out" 6.794084868368109e-04
"freq" 8.912509381337440e-02
"M15" (
2.449963515593136e-08
1.674285824839220e-12
2.450130944175620e-08
)
"M14" (
2.449963511496858e-08
1.674285822039855e-12
2.450130940079062e-08
)
"M13" (
2.235046792568879e-08
1.639795575734982e-12
2.235210772126453e-08
)
"M12" (
2.235046790542514e-08
1.639795574248289e-12
2.235210770099939e-08
)
"M11" (
1.972869878064961e-27
1.185545188120231e-31
1.972988432583773e-27
)
"M10" (
2.656667242001969e-08
1.462410489488790e-11
2.658129652491458e-08
)
"M9" (
2.656667241041622e-08
1.462410488960150e-11
2.658129651530582e-08
)
"M8" (
1.322526898060115e-07
1.507106763381212e-11
1.322677608736453e-07
)
"M7" (
1.322526897974027e-07
1.507106763283109e-11
1.322677608650355e-07
)
"M6" (
3.679388971824950e-27
1.602441950910994e-31
3.679549216020041e-27
)
"out" 6.414085663940823e-04
"freq" 9.999999999999981e-02
"M15" (
2.183532264828936e-08
1.674285811929048e-12
2.183699693410129e-08
)
"M14" (
2.183532261178056e-08
1.674285809129630e-12
2.183699689758969e-08
)
"M13" (
1.991987535289896e-08
1.639795563090749e-12
1.992151514846205e-08
)
"M12" (
1.991987533483860e-08
1.639795561604026e-12
1.992151513040021e-08
)
"M11" (
1.758385968954959e-27
1.185588231650173e-31
1.758504527778124e-27
)
"M10" (
2.367757156691204e-08
1.462410480191994e-11
2.369219567171395e-08
)
"M9" (
2.367757155835366e-08
1.462410479663398e-11
2.369219566315029e-08
)
"M8" (
1.178703331109983e-07
1.507106753800291e-11
1.178854041785363e-07
)
"M7" (
1.178703331033265e-07
1.507106753702199e-11
1.178854041708635e-07
)
"M6" (
3.278721143084944e-27
1.602179183973706e-31
3.278881361003341e-27
)
"out" 6.055346594496613e-04
"freq" 1.122018454301961e-01
"M15" (
1.946075160582691e-08
1.674285795676025e-12
1.946242589162258e-08
)
"M14" (
1.946075157328886e-08
1.674285792876647e-12
1.946242585908174e-08
)
"M13" (
1.775360742343656e-08
1.639795547172546e-12
1.775524721898373e-08
)
"M12" (
1.775360740734048e-08
1.639795545685845e-12
1.775524720288616e-08
)
"M11" (
1.567123019018967e-27
1.185557876024447e-31
1.567241574806570e-27
)
"M10" (
2.110265770285062e-08
1.462410468488041e-11
2.111728180753550e-08
)
"M9" (
2.110265769522251e-08
1.462410467959414e-11
2.111728179990210e-08
)
"M8" (
1.050520441225617e-07
1.507106741738613e-11
1.050671151899791e-07
)
"M7" (
1.050520441157237e-07
1.507106741640513e-11
1.050671151831401e-07
)
"M6" (
2.922504526141122e-27
1.602366276182939e-31
2.922664762768740e-27
)
"out" 5.716678582473664e-04
"freq" 1.258925411794165e-01
"M15" (
1.734441291351636e-08
1.674285775214714e-12
1.734608719929157e-08
)
"M14" (
1.734441288451738e-08
1.674285772415392e-12
1.734608717028979e-08
)
"M13" (
1.582291907802557e-08
1.639795527132750e-12
1.582455887355270e-08
)
"M12" (
1.582291906368021e-08
1.639795525646079e-12
1.582455885920585e-08
)
"M11" (
1.396642635683981e-27
1.185509301685865e-31
1.396761186614149e-27
)
"M10" (
1.880776328528523e-08
1.462410453753674e-11
1.882238738982277e-08
)
"M9" (
1.880776327848602e-08
1.462410453224997e-11
1.882238738301827e-08
)
"M8" (
9.362773193376283e-08
1.507106726553893e-11
9.364280300102838e-08
)
"M7" (
9.362773192766782e-08
1.507106726455783e-11
9.364280299493237e-08
)
"M6" (
2.605162230550986e-27
1.602659922980065e-31
2.605322496543284e-27
)
"out" 5.396959077769088e-04
"freq" 1.412537544622751e-01
"M15" (
1.545822404272290e-08
1.674285749455521e-12
1.545989832847236e-08
)
"M14" (
1.545822401687684e-08
1.674285746656124e-12
1.545989830262349e-08
)
"M13" (
1.410219125533969e-08
1.639795501904179e-12
1.410383105084159e-08
)
"M12" (
1.410219124255404e-08
1.639795500417468e-12
1.410383103805445e-08
)
"M11" (
1.244825529361066e-27
1.185572607821969e-31
1.244944086621848e-27
)
"M10" (
1.676243645958946e-08
1.462410435204140e-11
1.677706056394150e-08
)
"M9" (
1.676243645353041e-08
1.462410434675528e-11
1.677706055787717e-08
)
"M8" (
8.344580286285759e-08
1.507106707437448e-11
8.346087392993197e-08
)
"M7" (
8.344580285742616e-08
1.507106707339351e-11
8.346087392449955e-08
)
"M6" (
2.321296517917157e-27
1.602275616426485e-31
2.321456745478800e-27
)
"out" 5.095128336914019e-04
"freq" 1.584893192461110e-01
"M15" (
1.377715641311082e-08
1.674285717026543e-12
1.377883069882784e-08
)
"M14" (
1.377715639007596e-08
1.674285714227203e-12
1.377883067579018e-08
)
"M13" (
1.256859094262403e-08
1.639795470143250e-12
1.257023073809417e-08
)
"M12" (
1.256859093122903e-08
1.639795468656569e-12
1.257023072669769e-08
)
"M11" (
1.109406477409235e-27
1.185524046451673e-31
1.109525029813880e-27
)
"M10" (
1.493953698145528e-08
1.462410411851724e-11
1.495416108557380e-08
)
"M9" (
1.493953697605464e-08
1.462410411323064e-11
1.495416108016787e-08
)
"M8" (
7.437114889725307e-08
1.507106683371282e-11
7.438621996408679e-08
)
"M7" (
7.437114889241182e-08
1.507106683273175e-11
7.438621995924455e-08
)
"M6" (
2.069234242317395e-27
1.602567239058211e-31
2.069394499041301e-27
)
"out" 4.810185910424699e-04
"freq" 1.778279410038918e-01
"M15" (
1.227890327859267e-08
1.674285676200909e-12
1.228057756426887e-08
)
"M14" (
1.227890325806274e-08
1.674285673401556e-12
1.228057754373614e-08
)
"M13" (
1.120176819549002e-08
1.639795430158621e-12
1.120340799092018e-08
)
"M12" (
1.120176818533417e-08
1.639795428671932e-12
1.120340798076284e-08
)
"M11" (
9.887684677083156e-28
1.185534722294516e-31
9.888870211805449e-28
)
"M10" (
1.331487608233540e-08
1.462410382452729e-11
1.332950018615993e-08
)
"M9" (
1.331487607752217e-08
1.462410381924078e-11
1.332950018134141e-08
)
"M8" (
6.628335489225998e-08
1.507106653073757e-11
6.629842595879072e-08
)
"M7" (
6.628335488794529e-08
1.507106652975653e-11
6.629842595447504e-08
)
"M6" (
1.844132551805854e-27
1.602502580573448e-31
1.844292802063912e-27
)
"out" 4.541187326685116e-04
"freq" 1.995262314968874e-01
"M15" (
1.094358373035822e-08
1.674285624804471e-12
1.094525801598302e-08
)
"M14" (
1.094358371206077e-08
1.674285622005098e-12
1.094525799768278e-08
)
"M13" (
9.983586106515740e-09
1.639795379820943e-12
9.985225901895563e-09
)
"M12" (
9.983586097464270e-09
1.639795378334245e-12
9.985225892842605e-09
)
"M11" (
8.812532843160913e-28
1.185551484583370e-31
8.813718394645497e-28
)
"M10" (
1.186689549918476e-08
1.462410345441574e-11
1.188151960263918e-08
)
"M9" (
1.186689549489511e-08
1.462410344912941e-11
1.188151959834424e-08
)
"M8" (
5.907510073528718e-08
1.507106614931422e-11
5.909017180143650e-08
)
"M7" (
5.907510073144185e-08
1.507106614833321e-11
5.909017179759018e-08
)
"M6" (
1.643483033438355e-27
1.602403292552410e-31
1.643643273767610e-27
)
"out" 4.287240961369142e-04
"freq" 2.238721138568334e-01
"M15" (
9.753478889295199e-09
1.674285560100234e-12
9.755153174855299e-09
)
"M14" (
9.753478872987301e-09
1.674285557300814e-12
9.755153158544602e-09
)
"M13" (
8.897880139504728e-09
1.639795316449602e-12
8.899519934821176e-09
)
"M12" (
8.897880131437460e-09
1.639795314962878e-12
8.899519926752423e-09
)
"M11" (
7.854446935974719e-28
1.185592054486701e-31
7.855632528029205e-28
)
"M10" (
1.057638140940649e-08
1.462410298847310e-11
1.059100551239497e-08
)
"M9" (
1.057638140558363e-08
1.462410298318718e-11
1.059100550856682e-08
)
"M8" (
5.265073727315094e-08
1.507106566913094e-11
5.266580833882007e-08
)
"M7" (
5.265073726972408e-08
1.507106566815002e-11
5.266580833539223e-08
)
"M6" (
1.464534102515960e-27
1.602160766567893e-31
1.464694318592617e-27
)
"out" 4.047505082024575e-04
"freq" 2.511886431509573e-01
"M15" (
8.692796787227200e-09
1.674285478642342e-12
8.694471072705842e-09
)
"M14" (
8.692796772693018e-09
1.674285475842970e-12
8.694471058168862e-09
)
"M13" (
7.930243635910420e-09
1.639795236669751e-12
7.931883431147091e-09
)
"M12" (
7.930243628720586e-09
1.639795235183053e-12
7.931883423955768e-09
)
"M11" (
7.000047602600290e-28
1.185552152864841e-31
7.001233154753156e-28
)
"M10" (
9.426209475099491e-09
1.462410240188625e-11
9.440833577501379e-09
)
"M9" (
9.426209471692104e-09
1.462410239659993e-11
9.440833574088704e-09
)
"M8" (
4.692501710592093e-08
1.507106506461583e-11
4.694008817098556e-08
)
"M7" (
4.692501710286647e-08
1.507106506363481e-11
4.694008816793011e-08
)
"M6" (
1.305459461214620e-27
1.602396522464475e-31
1.305619700866866e-27
)
"out" 3.821185058021704e-04
"freq" 2.818382931264446e-01
"M15" (
7.747462817093103e-09
1.674285376093000e-12
7.749137102469196e-09
)
"M14" (
7.747462804139377e-09
1.674285373293601e-12
7.749137089512671e-09
)
"M13" (
7.067836647231999e-09
1.639795136232917e-12
7.069476442368231e-09
)
"M12" (
7.067836640823990e-09
1.639795134746205e-12
7.069476435958736e-09
)
"M11" (
6.238916804395719e-28
1.185574540473900e-31
6.240102378936193e-28
)
"M10" (
8.401117613498682e-09
1.462410166341699e-11
8.415741715162099e-09
)
"M9" (
8.401117610461978e-09
1.462410165813089e-11
8.415741712120110e-09
)
"M8" (
4.182196340572209e-08
1.507106430357650e-11
4.183703447002567e-08
)
"M7" (
4.182196340299995e-08
1.507106430259554e-11
4.183703446730254e-08
)
"M6" (
1.163395123177144e-27
1.602263142759244e-31
1.163555349491420e-27
)
"out" 3.607530726617852e-04
"freq" 3.162277660168370e-01
"M15" (
6.904932971459967e-09
1.674285246991000e-12
6.906607256706958e-09
)
"M14" (
6.904932959915226e-09
1.674285244191669e-12
6.906607245159418e-09
)
"M13" (
6.299215556697169e-09
1.639795009790431e-12
6.300855351706960e-09
)
"M12" (
6.299215550986163e-09
1.639795008303755e-12
6.300855345994467e-09
)
"M11" (
5.560172839378358e-28
1.185517480588160e-31
5.561358356858946e-28
)
"M10" (
7.487503478410248e-09
1.462410073373987e-11
7.502127579143988e-09
)
"M9" (
7.487503475703483e-09
1.462410072845319e-11
7.502127576431936e-09
)
"M8" (
3.727386175038631e-08
1.507106334548503e-11
3.728893281373180e-08
)
"M7" (
3.727386174795988e-08
1.507106334450394e-11
3.728893281130438e-08
)
"M6" (
1.037100287705327e-27
1.602608192124478e-31
1.037260548524539e-27
)
"out" 3.405833906405007e-04
"freq" 3.548133892335744e-01
"M15" (
6.154027391167740e-09
1.674285084461305e-12
6.155701676252201e-09
)
"M14" (
6.154027380878290e-09
1.674285081661923e-12
6.155701665959951e-09
)
"M13" (
5.614181229421482e-09
1.639794850608832e-12
5.615821024272090e-09
)
"M12" (
5.614181224331448e-09
1.639794849122128e-12
5.615821019180570e-09
)
"M11" (
4.955694106245701e-28
1.185561701937682e-31
4.956879667947639e-28
)
"M10" (
6.673243965340381e-09
1.462409956334531e-11
6.687868064903726e-09
)
"M9" (
6.673243962928180e-09
1.462409955805908e-11
6.687868062486239e-09
)
"M8" (
3.322036159421087e-08
1.507106213931938e-11
3.323543265635019e-08
)
"M7" (
3.322036159204854e-08
1.507106213833840e-11
3.323543265418688e-08
)
"M6" (
9.241624190178482e-28
1.602340860903657e-31
9.243226531039385e-28
)
"out" 3.215426049897460e-04
"freq" 3.981071705534960e-01
"M15" (
5.484782015389032e-09
1.674284879848546e-12
5.486456300268880e-09
)
"M14" (
5.484782006218648e-09
1.674284877049193e-12
5.486456291095698e-09
)
"M13" (
5.003643676084257e-09
1.639794650211097e-12
5.005283470734468e-09
)
"M12" (
5.003643671547807e-09
1.639794648724409e-12
5.005283466196531e-09
)
"M11" (
4.416667913151801e-28
1.185535099035881e-31
4.417853448250837e-28
)
"M10" (
5.947534345266164e-09
1.462409808990664e-11
5.962158443356070e-09
)
"M9" (
5.947534343116181e-09
1.462409808462015e-11
5.962158441200801e-09
)
"M8" (
2.960767545288612e-08
1.507106062084727e-11
2.962274651350696e-08
)
"M7" (
2.960767545095882e-08
1.507106061986623e-11
2.962274651157869e-08
)
"M6" (
8.237424338475046e-28
1.602500015002011e-31
8.239026838490048e-28
)
"out" 3.035676027476221e-04
"freq" 4.466835921509617e-01
"M15" (
4.888316364596972e-09
1.674284622256388e-12
4.889990649219228e-09
)
"M14" (
4.888316356423833e-09
1.674284619457027e-12
4.889990641043290e-09
)
"M13" (
4.459501434293538e-09
1.639794397925330e-12
4.461141228691464e-09
)
"M12" (
4.459501430250411e-09
1.639794396438638e-12
4.461141224646849e-09
)
"M11" (
3.936387262441003e-28
1.185543484189825e-31
3.937572805925193e-28
)
"M10" (
5.300744892444088e-09
1.462409623495710e-11
5.315368988679046e-09
)
"M9" (
5.300744890527945e-09
1.462409622967070e-11
5.315368986757616e-09
)
"M8" (
2.638786517625484e-08
1.507105870920417e-11
2.640293623496405e-08
)
"M7" (
2.638786517453717e-08
1.507105870822314e-11
2.640293623324539e-08
)
"M6" (
7.341388746552489e-28
1.602451247071614e-31
7.342991197799561e-28
)
"out" 2.865988035342209e-04
"freq" 5.011872336272706e-01
"M15" (
4.356715701996884e-09
1.674284297967166e-12
4.358389986294851e-09
)
"M14" (
4.356715694712572e-09
1.674284295167807e-12
4.358389979007740e-09
)
"M13" (
3.974534067102290e-09
1.639794080316459e-12
3.976173861182605e-09
)
"M12" (
3.974534063498853e-09
1.639794078829768e-12
3.976173857577682e-09
)
"M11" (
3.508300916339290e-28
1.185540806419045e-31
3.509486457145709e-28
)
"M10" (
4.724293103801670e-09
1.462409389971473e-11
4.738917197701385e-09
)
"M9" (
4.724293102093897e-09
1.462409389442831e-11
4.738917195988326e-09
)
"M8" (
2.351820583818897e-08
1.507105630258878e-11
2.353327689449156e-08
)
"M7" (
2.351820583665808e-08
1.507105630160775e-11
2.353327689295969e-08
)
"M6" (
6.543081387966835e-28
1.602466377711717e-31
6.544683854344547e-28
)
"out" 2.705799620541104e-04
"freq" 5.623413251903471e-01
"M15" (
3.882926009777818e-09
1.674283889711401e-12
3.884600293667529e-09
)
"M14" (
3.882926003285607e-09
1.674283886912016e-12
3.884600287172520e-09
)
"M13" (
3.542306352196878e-09
1.639793680470747e-12